/*--------------------------------*- C++ -*----------------------------------*\
| =========                 |                                                 |
| \\      /  F ield         | OpenFOAM: The Open Source CFD Toolbox           |
|  \\    /   O peration     | Version:  v2012                                 |
|   \\  /    A nd           | Website:  www.openfoam.com                      |
|    \\/     M anipulation  |                                                 |
\*---------------------------------------------------------------------------*/
FoamFile
{
    version     2.0;
    format      ascii;
    class       volScalarField;
    location    "0.039";
    object      p;
}
// * * * * * * * * * * * * * * * * * * * * * * * * * * * * * * * * * * * * * //

dimensions      [1 -1 -2 0 0 0 0];


internalField   nonuniform List<scalar> 
449343
(
105292
105409
105600
105768
105810
105483
104621
103149
101124
98760.7
96355
94183.7
92439.7
91233.3
90619.3
105275
105393
105584
105752
105793
105465
104602
103130
101107
98745.9
96341.7
94170.2
92425.3
91217.9
90603.3
105261
105379
105571
105738
105777
105446
104582
103111
101091
98735
96334.3
94163
92416.2
91206.9
90591.1
105251
105369
105561
105728
105763
105427
104561
103090
101076
98726.7
96332.3
94161.9
92412.4
91200.1
90582.7
105243
105362
105554
105720
105751
105409
104540
103069
101061
98721.7
96335.4
94166.1
92413.3
91197.3
90577.7
105238
105357
105549
105715
105742
105395
104524
103055
101054
98722.9
96343.1
94174.3
92417.4
91197.3
90575.5
105234
105354
105546
105712
105736
105387
104514
103046
101050
98727
96349.8
94182.6
92421.9
91198.1
90574.4
105231
105351
105543
105709
105732
105382
104506
103038
101044
98727
96352.3
94185
92422.5
91197.2
90572.9
105227
105347
105540
105705
105729
105380
104508
103040
101046
98723.3
96346.5
94179.2
92417.5
91193.2
90569.3
105223
105342
105535
105701
105727
105381
104511
103043
101043
98712.1
96332
94162.6
92405.9
91185.2
90563.1
105217
105335
105528
105694
105725
105383
104515
103046
101039
98699.6
96313.3
94143.8
92390.8
91174.5
90554.7
105209
105327
105519
105685
105721
105385
104519
103049
101036
98688
96294
94123.7
92374.2
91161.9
90544.3
105199
105317
105508
105675
105714
105383
104518
103048
101029
98674.3
96274.1
94103.3
92356.8
91147.5
90531.8
105187
105304
105495
105662
105702
105374
104511
103040
101017
98657.1
96253.8
94083.2
92338.8
91131.7
90517.2
105171
105288
105478
105646
105686
105359
104497
103025
101001
98638.4
96233.9
94063.4
92320
91114
90500.2
105159
105324
105615
105934
106150
106043
105312
103771
101487
98781.6
96075.7
93705.6
91852.4
90593.4
89959
105142
105307
105598
105918
106134
106025
105292
103751
101471
98768.4
96063.9
93692.8
91837.8
90577.4
89942.4
105128
105294
105586
105905
106120
106006
105270
103732
101457
98761.8
96061
93687.6
91828.6
90565.4
89928.9
105117
105284
105577
105897
106108
105985
105243
103701
101437
98757.1
96066
93690.2
91825.2
90557.4
89918.9
105110
105277
105572
105891
106100
105959
105214
103673
101405
98756.4
96079.9
93700.6
91827.3
90553.7
89912.4
105105
105274
105570
105891
106097
105946
105192
103656
101403
98764.4
96099.8
93716.9
91834
90553.5
89909.2
105102
105272
105570
105890
106090
105942
105186
103650
101403
98780.3
96129.8
93736.2
91841.5
90555.2
89908.1
105099
105270
105568
105889
106088
105938
105173
103592
101391
98780.6
96137
93741.8
91843.5
90555.4
89907.2
105097
105267
105565
105885
106085
105938
105181
103645
101401
98780.2
96130
93735.3
91839.5
90552.4
89905.2
105093
105262
105559
105880
106085
105935
105184
103650
101398
98759
96093.9
93710.5
91826.7
90545.2
89900.2
105088
105256
105550
105869
106078
105939
105195
103656
101389
98741.2
96064.5
93684.6
91810.5
90536.2
89894.4
105082
105248
105541
105860
106072
105948
105207
103666
101403
98724.8
96034.4
93658.7
91793.3
90525.2
89886.4
105073
105239
105530
105849
106063
105949
105213
103675
101401
98707.2
96007.4
93634.6
91775.8
90512.6
89876.2
105062
105226
105517
105835
106050
105940
105207
103667
101387
98686
95982.8
93612.6
91758.1
90498.1
89863.2
105047
105211
105501
105819
106034
105926
105194
103653
101371
98666
95961.3
93592.2
91739.7
90481.2
89847
104816
105088
105605
106284
106960
107413
107075
105358
102387
98783.1
95340.8
92520.1
90430
89059.5
88382.9
104798
105071
105588
106268
106945
107395
107053
105338
102371
98773.9
95332.4
92508.2
90414.5
89041.9
88364.4
104783
105057
105577
106260
106937
107380
107026
105320
102361
98780.1
95340.5
92506.3
90403.9
89026.8
88347.6
104771
105046
105571
106257
106934
107354
106975
105284
102314
98786.3
95366.9
92517.2
90399.7
89015.3
88333.2
104762
105041
105571
106261
106933
107313
106880
105181
102234
98819.1
95407.4
92539.2
90403.1
89008.2
88322.4
104758
105041
105577
106272
106949
107284
106842
105165
102239
98855.3
95469
92573.4
90412.6
89006.2
88315.9
104756
105041
105580
106283
106936
107288
106828
105154
102241
98884.1
95600.4
92616.9
90428.6
89008.6
88313.7
104756
105042
105583
106287
106943
107298
106848
105186
102237
98890.1
95610.2
92627.2
90433.8
89011.2
88314.3
104754
105039
105578
106282
106937
107289
106831
105160
102250
98892.2
95609.5
92623.1
90432.1
89010.6
88315.2
104754
105037
105574
106268
106945
107282
106843
105169
102247
98864.4
95477.9
92579.6
90415.7
89007.4
88316.1
104752
105031
105560
106251
106922
107304
106873
105178
102237
98820.5
95408.3
92538.2
90399.8
89003.2
88316.5
104750
105025
105549
106235
106912
107331
106953
105264
102296
98769.6
95351.2
92501.2
90382.8
88997.5
88315
104745
105018
105537
106219
106894
107336
106982
105276
102319
98740.2
95302.2
92469
90366.9
88989.8
88310.4
104736
105008
105524
106202
106877
107325
106983
105267
102301
98706.1
95266.7
92443.9
90351.1
88978.9
88301.7
104722
104993
105509
106186
106860
107310
106971
105255
102284
98682.7
95242.4
92423.2
90334
88964.1
88287.8
104133
104562
105418
106675
108203
109728
110520
108469
103989
98504.6
93817
90374.9
88008.2
86527.9
85818.5
104114
104543
105402
106661
108190
109713
110490
108447
103969
98500.3
93811.8
90361.4
87989.2
86506.7
85796.5
104095
104527
105390
106657
108192
109710
110463
108448
103994
98543.6
93835.5
90358.3
87972.4
86484.9
85773
104079
104514
105387
106670
108205
109713
110270
108433
103875
98639.7
93905.8
90371.1
87959.9
86464.1
85749.6
104066
104507
105392
106685
108238
109651
109488
108140
104693
98811.9
94010.6
90409.8
87955.3
86446.8
85729
104062
104510
105417
106752
108317
108863
109369
108104
104739
100092
94162.7
90466.7
87961.8
86434.6
85713.8
104058
104513
105430
106772
107670
108892
109335
108069
104716
100134
95506.4
90524
87974
86433.4
85707.2
104060
104520
105442
106783
107672
108913
109362
107983
104727
100162
95505.5
90539
87993.3
86441.6
85708.3
104063
104516
105433
106776
107670
108905
109346
108068
104739
100165
95517.5
90539.2
87983.7
86443
85716
104070
104519
105426
106762
108327
108873
109356
108097
104738
100149
94203.1
90495.5
87982.9
86451.3
85728.4
104075
104515
105399
106692
108246
109662
109473
108139
104746
98840.2
94040.2
90434.1
87974.2
86461.9
85742.3
104081
104516
105388
106670
108204
109710
110272
108436
103882
98648.2
93916
90380.3
87967
86469.4
85753.9
104084
104514
105376
106641
108174
109686
110440
108422
103970
98524.3
93820.5
90345.6
87960.2
86472.7
85760.6
104080
104509
105365
106621
108148
109664
110441
108397
103920
98454.5
93770.1
90322.3
87951.6
86469.8
85759.9
104069
104497
105351
106605
108129
109646
110438
108386
103909
98428.1
93744
90303.9
87938.6
86459.3
85750.3
102914
103514
104762
106753
109550
113070
116766
113946
106409
97181.6
90799
86869.2
84394.6
82935.6
82265.4
102890
103490
104742
106738
109541
113063
116735
113932
106411
97195.4
90794.7
86848
84367.8
82907.8
82237.5
102863
103466
104723
106733
109560
113091
116725
113932
106474
97262.5
90819
86827.1
84334.6
82873.1
82202.5
102837
103445
104717
106777
109695
113197
114404
114004
108097
97705
90973.2
86827.1
84296.4
82833
82163
102812
103424
104719
106813
109747
111698
114343
113903
108164
100029
91134.1
86831.2
84261.1
82791.4
82123.5
102801
103429
104769
107002
108882
111860
114335
113755
108094
100289
93409
86922.5
84219.6
82759.7
82090.8
102788
103418
104766
106423
108948
111948
113416
113100
108486
101337
93629.7
88820.6
84160
82726.6
82069.8
102796
103434
104838
106437
108997
111991
113443
113100
108542
101418
93738.3
88899.9
84284.6
82731.6
82075.6
102803
103427
104776
106428
108989
111992
113436
113130
108548
101444
93743.9
88904.9
84181.6
82747.1
82089
102828
103459
104798
107032
108897
111895
113513
113152
108545
100448
93578.5
86989.7
84270.4
82799.5
82126
102848
103458
104753
106846
109781
111763
114340
113818
108127
100238
91213.3
86895.4
84312.5
82835.2
82163.9
102872
103481
104750
106808
109725
113223
114393
114004
108226
97749.4
91020.4
86871.8
84337.1
82870.4
82198.8
102890
103492
104746
106751
109573
113095
116727
113949
106467
97265.3
90833.9
86847.5
84356.6
82895.3
82224.6
102897
103497
104744
106736
109532
113044
116710
113900
106382
97177.4
90785.1
86843.1
84365.6
82907.1
82237.4
102893
103491
104735
106721
109511
113020
116710
113885
106356
97141.2
90761.8
86834.1
84361.6
82904.2
82234.7
100910
101633
103198
105888
110192
116985
122475
127689
113812
92484.4
85090.9
81464.5
79348
78224.1
77745.4
100879
101602
103168
105865
110184
116978
122457
127670
113808
92494
85071.9
81424.9
79307.9
78186.6
77709.3
100836
101560
103127
105828
110171
117002
122427
127638
113782
92463.2
85008.6
81339.4
79243.1
78131.6
77658.1
100790
101519
103103
105855
110521
114798
122471
127681
113740
96978
85058.9
81185.7
79148.6
78061.1
77595
100740
101463
103047
105895
109284
115045
122709
125219
115092
97651.5
88345.3
81025
78988.3
77968.3
77526.2
100709
101427
103088
105466
109363
114076
120913
124103
115068
99991.2
88509.1
83471.1
78837.8
77872.7
77464.1
100681
101387
103071
105497
109488
114107
119991
124086
115614
101026
90307.5
83543.5
78729.1
77798.4
77421.9
100679
101372
103077
105561
108854
113603
120017
124100
115684
101196
90391.8
83603.1
80731.8
77773.8
77424.5
100710
101415
103099
105547
108860
114094
120040
124154
115786
101301
90455.2
83601.7
78784.6
77837.2
77455.9
100763
101482
103141
105486
109503
114157
120026
124205
115822
101261
90483.2
83638.4
78924
77940.4
77525.7
100813
101533
103117
105964
109330
115137
120881
125182
115228
100028
88623.3
81147.8
79084
78049.8
77602.1
100872
101599
103182
105930
110591
114876
122521
127704
113786
97227
85150.5
81276
79232.9
78140.8
77672.3
100916
101637
103200
105895
110229
117044
122438
127621
113765
92475.2
85056.8
81400.8
79309.1
78199
77725.7
100943
101664
103225
105914
110222
116998
122431
127636
113783
92504
85101.2
81463.6
79352.2
78233.8
77757.7
100948
101668
103227
105908
110200
116974
122447
127653
113805
92505.9
85103.7
81477.8
79363.8
78242.2
77764.8
97908.1
98606.8
100171
103033
107947
114715
131092
160839
117723
84747.1
74703.9
73437.5
72716.2
72481.8
72417.5
97864.9
98561.6
100123
102981
107900
114674
131034
160796
117713
84746.8
74649.7
73368.4
72660.8
72433.5
72372.5
97798.6
98487.4
100035
102867
107739
114592
130885
160697
117778
84742.8
74481
73224.2
72561.5
72353.8
72303.3
97717.4
98396.2
99928.2
102594
107054
114865
130800
160468
117479
84738.7
77786.5
72813.1
72400.3
72243.4
72214.6
97619.5
98270.7
99702.5
102614
107020
113916
127767
160185
118261
88569.7
77415.2
74919.4
72085.3
72099.9
72113.9
97536.1
98112.4
100131
102635
106723
113824
126275
155071
123027
90555.4
79673.1
74778.7
73735.1
71945.7
72026.1
97494.4
98060.6
100109
102607
106721
113365
126119
154901
123121
90734.3
81052.8
76369.8
73666.4
71916.1
71987.7
97479.2
98045.7
100171
102635
106716
113327
126064
154892
123532
91150
81256
76458
73729
71938.8
71972
97541.3
98107.6
100152
102678
106758
113352
126094
154981
124058
91532
81421.8
76531.1
73727.7
71971.7
72043.4
97627.3
98203.8
100201
102663
106800
113424
126197
155076
123913
91408
81386
76552.8
73819.4
72043.9
72119.9
97745
98394.9
99826.5
102694
107088
113962
126382
155219
123411
90992.5
80069.4
75029.6
72238.8
72228.9
72234.7
97862.6
98540
100071
102728
107025
114844
127890
160317
117572
88999.7
77804.5
72955.1
72538.4
72376.3
72344.9
97949
98635.2
100178
103000
107861
114641
130901
160556
117544
84719.8
74561
73334
72682.8
72478.9
72429.6
98005.3
98698.3
100252
103099
108003
114739
131018
160717
117631
84756.2
74724.6
73461.1
72764.1
72542.2
72483.6
98023.8
98718.1
100274
103122
108021
114751
131083
160794
117797
84840.2
74787.5
73513.8
72794.7
72564
72501.8
93849.1
94268.6
95204.6
96932.7
99799.7
106398
113719
111294
24823.2
54406.6
59890.8
63021.9
64968.3
66184.7
66738.2
93793.6
94208.6
95137.1
96852.1
99723
106316
113643
111147
24470.3
54406.9
59794.5
62945.6
64910.2
66130.1
66686.6
93701.7
94101
95010.8
96712.3
99530.6
106135
113461
110934
25920.1
54505
59676
62864.4
64820.1
66042.6
66607.5
93583.2
93947.4
94818.2
96352.8
100714
105632
113094
110638
25921.6
54527.5
60946.5
62804.1
64705.3
65931.2
66511.9
93439.5
93765.3
94545
97401.1
100367
105912
113723
110241
25471.2
57697.6
62386.1
63983.6
64667.8
65839.5
66416.5
93297.9
93600.6
95601.9
97217.2
100757
106049
113388
109752
25497.2
58076.7
63404.2
64102.2
65690.3
65828.7
66348.3
93252.8
93544.3
95545.1
97103.8
100959
105912
113173
109438
26116.2
58674.7
63841.6
65171.3
65684.7
65853.9
66340.5
93255.1
93535.3
95519
97738.9
100941
105856
113076
109206
28015
59880.7
64375.6
65859.6
65798.3
65905.6
66348.6
93326.6
93617.8
95559.5
97764.8
100973
105887
113100
109213
37307.5
60969.1
64641.6
65959
65808.8
65929.7
66412.4
93441.1
93743.8
95674.9
97240.6
101050
106002
113249
109447
34923.4
60304
64363.3
65385.4
65820.6
65966.9
66480.3
93636
93960.7
94743.6
97449
100935
106188
113514
109832
26330.2
58862.7
63808.5
64247
64874
66023.2
66592.4
93813.3
94174.9
95041.2
96570.1
100743
105421
112846
110424
25044.9
56383.3
60999.2
63000.2
64907.1
66129.7
66708.9
93946.7
94341.5
95242.1
96929
99733.7
106033
113340
110775
24586.9
54365.1
59784.5
63030.9
65009.7
66240.9
66808.7
94034.1
94443.1
95359.9
97057.8
99909.4
106388
113626
111041
24314.8
54428.8
59917.5
63102.5
65087.2
66317.3
66877.9
94067.4
94480.2
95402.7
97110.7
99951.7
106488
113745
111184
24950.5
54670.2
60063.3
63176.4
65126.6
66348.8
66905.5
89006.3
88907.9
88682.9
88326.4
88232.3
92114.1
95742
108869
4210.97
33339.4
46369.4
53271.8
57762
60374.9
61545.3
88942
88838.2
88606.5
88241.5
88159.4
92024.9
95658.3
108636
2404.49
33316.9
46257.3
53208.3
57703
60315
61487.5
88836.5
88719.6
88475.7
88139.1
88016.4
91835.4
95465
108436
4179.88
33386.2
46220.8
53170.1
57623.7
60229.1
61402.4
88704.4
88552.2
88288
88058.2
90639.8
91667.1
95118.9
108127
3790.59
33516.9
46287.7
53246.3
57552.5
60139.8
61310.1
88560.7
88379.7
88148.7
89937.5
90527
93328.6
95998.7
107899
2323.84
33238
46817.9
53853.5
57552.2
60099.4
61238.9
88432.4
88313
89604
89758.3
91624.5
93969.4
95722.3
107200
2370.28
33743.9
47280.9
53867.5
58124.1
60089.1
61203.1
88405.8
88296.1
89472.3
89691.3
92176.5
93799.9
95515.4
106861
5134.16
35047.6
47849.6
54398.9
58146.1
60098.5
61199.1
88424.5
88309.7
89445.1
90636.1
92131.2
93735.9
95424
106603
2669.5
38372
48725.5
54850.7
58209.5
60151
61219.2
88520.3
88408.8
89506.1
90683.6
92181.1
93782.2
95462.9
106618
2948.68
39248.1
48907.1
54941.6
58267.2
60200.9
61296
88647.9
88528.5
89653.7
89909.4
92309.8
93934.8
95633.2
106924
2143.96
35821.3
48214.6
54626.7
58330.9
60275.7
61383.6
88853.6
88670.1
88438
90029.2
91896
94185.9
95909.7
107416
2854.52
34298.4
47625.6
54095.6
57825.4
60352.2
61484.6
89048.3
88892.1
88619.1
88379.4
90880.5
91976.6
95370.6
108136
2512.54
33666.9
46710.7
53525.9
57839
60423.6
61592.9
89206.3
89082.5
88823.3
88463
88319.9
91981.2
95451.7
108375
2422.6
33453.6
46410.6
53418.9
57904
60522.2
61699.9
89313
89200.1
88950
88557.8
88445.9
92168.6
95717.6
108649
2545.55
33461.3
46455.1
53451.1
57975.3
60602.6
61781.3
89357.7
89249.3
89003.5
88616.9
88491
92290.2
95858.9
108807
2443.45
33577.2
46603.2
53515.2
58018.8
60642.5
61818.3
84081.1
83411.6
82011.9
79736.9
79289
77931.2
80249.5
2522.95
25658.1
39470
47506.5
53046.1
56347.9
57881.1
84009.1
83333.1
81924.9
79643.3
79199.9
77837.8
80166.2
2294.62
25512.8
39344.6
47426.4
52962.3
56269.6
57806.9
83895.9
83211.7
81780.7
79496.6
79088.7
77691.7
79976.5
2298.91
25357.3
39290.3
47315.7
52829.5
56151.6
57691.7
83765.9
83064
81597.5
79450.4
79181.5
77451.2
79646.3
2289.04
25272.2
37944.6
47291
52682.2
56018.3
57560.1
83649.4
82930.6
81547.2
81358.4
79531.8
79313.8
80114.5
2288.38
23055.4
37281.9
46615.7
52549.8
55919.7
57445.9
83565.4
82946.6
82894.9
81473.7
80673.5
80110.3
79887.9
2335.83
23238.6
36945.2
46446.4
52240.8
55774.8
57371.7
83559.1
82945.5
82847
81488.6
81354.2
80014
79718.4
2208.08
24502.2
37084.1
46181.8
52163.6
55699
57324.1
83598
82989.4
82864.5
82352.4
81439.7
79981.3
79645.6
2300.37
30393.1
37728.5
46184.3
52142.8
55730.6
57338.2
83729
83113.3
82963.6
82442.5
81518.1
80051.6
79712.8
2249.95
26820.2
37721.2
46285.4
52251.7
55833.7
57451.8
83879.8
83260.1
83130.4
81786.3
81574.2
80208.6
79894.8
2816.38
23475
37220.8
46451.6
52446.4
56025.8
57613.7
84074.9
83356
81976.2
81695.9
80992.1
80388.6
80137.9
2250.99
23165.9
37184.6
46815
52910.6
56262.4
57782
84263.2
83558.8
82079.4
79904.1
79568.8
77868.9
79536.8
2294.28
24163.1
38331
47683.4
53082.7
56416
57955.2
84429.8
83736.8
82283.8
79952.8
79429.1
77908.3
80041.2
2299.96
25371.8
39586.7
47683.4
53234.1
56570.2
58114.4
84549.1
83860.7
82423.4
80091.1
79585.5
78090.1
80300.4
2293.72
25585.4
39618.6
47779.7
53358.2
56686.8
58232.1
84603.4
83919.8
82488
80158.8
79626.3
78194.5
80450
2293.63
25760
39734.7
47845.2
53422.3
56746
58287.9
79986
78802.7
76311.4
71905.4
69387.7
61391.7
56598.2
5992.8
2295.18
25464.5
38016.9
46072.6
51598.7
54915.3
56503.8
79898.4
78703.9
76190.9
71756.7
69259.4
61252.5
56501.9
2325.76
2297.42
25323.3
37803.7
45936.3
51461.1
54799.6
56397.4
79758
78547.2
75980.7
71470.8
69025.7
60957.1
56267.3
2707.17
2295.78
21613.2
37603.7
45668.2
51215
54603.5
56216.1
79596.8
78366.2
75686.9
71151.1
68686.8
60531.2
55969.6
3357.96
2297.96
21363.1
34515.9
45310.7
50874.2
54347.1
55988.9
79459.7
78181.7
75398.6
73787.1
68058.9
63144.8
57606.7
2987.71
2271.68
18826.4
32690.2
43104.6
50493.7
54098
55758.3
79370.2
78060.9
77168.2
73435.3
69789.7
64221.1
57492.5
2939.7
2305.13
18153.3
31236
42420.6
49017.9
53794.2
55566.4
79354.1
78020.7
77093.1
73179.4
70491.6
64014.9
57333
2382.89
2890.6
14794.2
29543.2
40970.4
48681
53615.9
55443.3
79417.6
78091.8
77114
74625.1
70442.1
63954.2
57230.9
2359.1
2287.7
2298.36
27845.4
40160.3
48557.2
53615.1
55446.5
79598.3
78271.9
77281.6
74786.6
70577.2
64074.8
57344.5
2254.97
2177.36
14153.3
29109.2
40399.6
48739.7
53792.9
55612.6
79822.5
78521.4
77552.1
73680.1
70887.4
64325.4
57534.3
2285.75
2299.97
15623.9
30343.5
41481.4
49156.1
54130.1
55891.5
80066.8
78802.9
76044.3
74240
70398.8
64644.9
57725.4
2322.13
2285.24
17877.5
31606.6
43152.1
50991
54565.1
56215.5
80298.2
79073.4
76389.9
71808.1
68972.2
60794.9
56130.1
2346.49
2296.91
20372.4
34797.8
45875.7
51440.1
54899.9
56532.3
80505.3
79287.8
76698.9
72126.5
69346.6
61157.5
56363.5
2417.13
2298.21
21690.2
38033.2
46205.6
51790.7
55188.2
56800.9
80654.3
79446.8
76897.1
72390.5
69676.7
61493.9
56598.2
2341.81
2296.78
25427.8
38160.9
46430.9
52019.9
55384.8
56990
80724.6
79525.2
76993.2
72513
69834
61717.8
56834.4
2723.86
2297.86
25744.3
38347.2
46534.8
52130.2
55480.1
57079.3
77538.1
75995.5
72706.8
66840.9
56499.6
46069.9
19695.5
2321.91
2303.9
28969.3
40753.8
48182.1
53180.7
56158
57584.4
77424.1
75862.8
72529
66613
56205.9
45780.6
19740.9
2290.44
2303.09
28588.2
40408.9
47944
52971.8
55993
57439.1
77233.8
75640.4
72222.3
66220
55641.8
45017.5
19519.8
2251.79
2306.28
23102.7
39868.4
47487.7
52587.1
55696.2
57180.6
77002.9
75377.3
71805.2
65688.8
59327.1
44167.2
19203.8
2246.67
2525.03
22549.9
35143.8
46732.7
52019.1
55281.8
56836.9
76792.4
75108.3
71421.9
67684
58800.4
47420.6
25382.1
2274.41
2299.52
17900.7
32111.8
43109.9
51365.2
54839.3
56468.3
76649.7
74900.9
72778.2
67290.3
60516.1
48835
25935.7
2241.18
2304.38
16188.3
29416.9
41885.1
48802.3
54409.4
56143.5
76613.8
74821
72703.6
66961.9
61148.2
48420.7
25650.6
2299.45
3164.92
9565.73
26079.2
39238
48133.8
54131.6
55948.5
76710.8
74925.2
72750.4
68404
60998
48260
25534.3
2241.36
2278.3
2298.47
22607.1
37603.8
47909.1
54103.7
55949.4
76965.2
75204.4
73000.3
68653.6
61260
48523
25721.3
2240.72
2272.83
7757.8
24371.9
37925.1
48194.2
54369.9
56178.8
77292
75586.8
73382.5
67807
61827.2
49035.9
26024.5
2277.37
2268.48
10329.8
27120.7
39992.4
48876.8
54870.4
56585.5
77639.7
76003
72398.8
68465.3
61458
49533.7
26132.5
2234.77
2304.86
15679.8
29972.6
43107.8
52055.9
55485.2
57088.6
77966.9
76368.1
72827.2
66687.4
59961.2
44551.6
20954.2
2292.01
2300.89
20490.6
35473.3
47581.9
52831.7
56045.9
57574.3
78249.1
76659.8
73230.7
67148.2
56338.4
45108.1
19528
2281.23
2304.52
23109.8
40541.2
48286.4
53404.3
56501.4
57973.7
78446.7
76877.6
73507.1
67489
56869.4
45847.8
19687.8
2262.32
2303.08
28735.1
40936.3
48657
53757.8
56797.8
58244.3
78541.8
76985.9
73654.8
67688.1
57179.2
46413.1
20048.2
2272.95
2305.05
29092.9
41191.7
48835.8
53928
56939.1
58372.5
77333.7
75817.7
72568.9
66957.1
56951.8
45500.3
9694.02
2301.66
16979
38881
47727.7
53569
57449.7
59724.7
60821.6
77191
75648.6
72330.1
66601.4
56629.9
44479.5
8949.66
2253.85
16855.2
38174.5
47228.2
53203.3
57163.5
59513.8
60641.9
76949.7
75357.7
71913.4
65997.9
56374.4
42502.9
9732.71
2274.07
11026.4
29827.4
46393.4
52526.5
56641.6
59132.7
60320.3
76652.7
75006
71390.9
65322.7
57192.2
40755.5
9784.21
2267.09
5627.24
27877.3
40318.6
51458.5
55867.7
58597.8
59891.2
76377.6
74652.3
70918.4
65858.7
56108.5
42013
18999.9
2275.56
2282.31
20341.7
35825.9
46810.3
55027.7
58015.7
59434
76187.3
74402.9
71326.4
65118.6
56518.9
42066.8
18531.4
2300.85
2409.37
17187
31811
45091.2
51729.2
57538.2
59040.6
76143.3
74291
71144.2
64572.7
56376.1
40810.8
17757.8
2259.7
2233.49
10342.6
27759.3
41600.4
50880
57212
58817.7
76288.9
74444.4
71230.3
65579.4
56011.6
40146
17342.2
2246.13
2505.34
2276.13
23872.1
39357.7
50566.5
57192.8
58835.1
76633.1
74858.3
71637.7
66031.8
56628.7
40996
17725.1
2248.09
2368.9
2410.97
24526.3
39612
50923.6
57538.4
59124.6
77069.2
75390.6
72194.9
66096.9
57799.7
42549.7
18915.6
2286.31
2241.23
3085.41
27942.5
42526.6
51843.8
58166.6
59629.7
77520.6
75902.3
72385.4
67030.1
58281.7
43616.8
19255
2206.11
2309.61
17306.6
32798.3
46989.7
56051.2
58904.9
60258.8
77934.1
76355.7
72855.6
66853.2
58016.5
41378.9
18363.4
2302.18
4819.61
25155.2
40825.1
52834.2
57045.7
59637.5
60867.7
78282.8
76722.4
73311.2
67347.7
57385.1
42103.2
9472.49
2261.11
7471.4
29561.3
47579.3
53747.2
57796.9
60218.6
61365.7
78526
76993
73663.5
67827.8
57600
44766.4
8304.14
2226.5
13264.6
38265.3
48010.5
54246.2
58259.7
60593.8
61702
78645.8
77129.3
73857.4
68132.9
57936.7
46116.7
9424.84
2284.41
12741.6
38606.2
48343.2
54502.9
58488.8
60775.1
61863.9
79510
78503.7
76414.3
73303.7
66831.9
59648.7
46163.3
9128.69
48201.9
56387
59187.7
62069.2
63966.9
65126.6
65726.9
79346
78300.8
76116.3
72759.9
66086.8
58273.7
39552.7
2337.94
44371.8
55045.8
58400.7
61560.5
63620.9
64887.6
65528.9
79067.8
77948.7
75591.6
71774.4
66521.7
53200.6
27685.2
2435.16
24362.6
44927.6
57565.5
60700.3
63021.5
64468
65181.6
78724.8
77501.7
74866.1
70631
63603
50658.9
23719.4
2477.9
13425.9
41508.3
50488.7
59454.5
62134.1
63893.1
64726.6
78405.9
77046.7
74150.5
69345.8
61286.2
48408
24659.3
2585.11
2303.75
29633.1
44842.7
54173.5
61270.6
63274.3
64257.5
78187.3
76751
73509.5
67847.5
59380.3
45458.6
22925.4
2294.53
2243.63
22629
39470.3
52359.4
57528.4
62851.1
63885.6
78147.3
76622.8
73047.7
66850.4
57606.1
41188.8
18780.9
2082.35
2308.84
16162.9
35042.4
48479.6
56758.7
62581.6
63695.8
78349.5
76842.1
73158.1
67160.1
56597.2
37493.7
15136.7
3693.43
2308.78
3982.43
30761
45987.5
56536.6
62623.3
63758
78794.8
77423.7
73789
68009.5
58153.7
41346.8
18654.8
2291.76
2296.59
2080.68
30571.9
46239.7
56956.7
63015.7
64089.5
79333.3
78101.1
74631.2
69518.1
60734
46598.2
28275.8
11306.3
2189.64
12054.6
35341.1
49749.9
57971.7
63685
64638.3
79871.6
78707.2
76247.6
70906.3
62788.2
49031.4
25033.3
2139.01
9361.87
27932.1
42073.2
55043.7
62729.4
64448.7
65309.7
80351.1
79264.3
76897.9
73009.2
64645.5
50826.1
23832.1
2294.22
12990.5
38254.4
52049.9
61592
63775
65251.8
65966.6
80745.2
79706.2
77480.6
73743.2
68260.2
52835.9
22447.9
2525.68
22579.8
45379.5
59701.3
62546
64604.8
65877.5
66504.3
81017.7
80015.5
77887.3
74480
67529.1
59024.4
36214.1
2344.47
44981.9
56921.8
59953.8
63143.7
65116.6
66284.8
66869.2
81152.9
80173.7
78118.9
74948
68287.7
61477.6
46290
17867.2
48121.2
58128.8
60533.8
63500.5
65390.7
66488.5
67048.7
83464.7
83267.2
82954.3
83836.2
85889.5
92860.6
139349
155904
103789
80888.5
74481.5
72606.2
71812.6
71622.3
71633
83299.1
83046.6
82638.1
83212.2
84867
92348.4
141867
147360
101430
79540.4
73478.6
72019.4
71446.2
71382.3
71440.3
83015.7
82656.7
82069.8
81589.9
83108
80471.9
109400
109999
93768.7
72161.2
71499
70903.7
70837.5
70975.7
71111.5
82664.9
82156.8
81151.6
79963.2
76499.4
74931.2
86051.9
89029.5
74823.9
67216.8
66029.9
69474
69964.2
70445.4
70693.2
82348
81662.8
80298.6
76713.5
73178.3
66515.8
53578.6
14507.6
37032
52909.1
59856.5
64815
69136.1
69883.1
70280.8
82150.1
81370.3
78465.3
74891.8
68746.6
59164.5
42982
2334.74
2377.4
41773.4
54226.5
63347
65752.4
69554.1
70008
82149.3
81303.1
77954.5
73731.7
65253.6
49455.4
27038.3
2291.98
2174
32365.2
50816.2
59948.3
65232.3
69408.7
69904.5
82415.8
81626.1
78164.7
73326.8
63742.7
38868.4
2314.9
2301.85
2260.37
18069.2
48547.8
58049.3
65307.3
69539.7
70025.2
82922.3
82266.8
78979.7
74611.8
66845.3
51520.8
28711
2844.82
2293.09
18537.2
48647.6
58482
65770.3
69932.9
70370.5
83519.5
83017.3
80020.2
77619.5
70962.9
62904.1
42554.1
10583.4
1817.98
35649.4
52958.5
61728.9
66652
70556.2
70900.7
84098.7
83692.1
82978.7
79191.5
74536.1
67048
47847.7
2259.19
39044.8
52765.2
58991.3
66597.7
70948.3
71304.7
71535
84606.4
84312.4
83768.9
83347.4
78699.9
75919.2
55584.8
4985.7
54595.5
65221.8
68779.1
72287.5
72026.7
72095.7
72172.6
85014.2
84797.5
84490.9
84381.4
86187.5
80066.6
93942.8
112664
85807.6
73444.4
74642.3
73379.7
72841.4
72692.6
72691.6
85287
85121.8
84885.4
85602.6
87070.8
95489.3
142120
148464
103166
82502.4
75828.6
74210.1
73355.7
73088.1
73044.3
85419.1
85283.5
85096.8
86066.3
87599.1
95568.9
136787
141015
103224
83451.6
76446.4
74628.2
73644.2
73291.4
73221.1
88007.2
88488.6
89462.8
92454.6
98855.9
102976
124787
129695
108416
94919.6
86827.1
82012.9
79364.3
78159.8
77682.6
87882.4
88315.1
89258.2
92193.1
98401.4
103414
127609
137688
108645
94245.3
86170
81582.6
79065.8
77962
77527.8
87662.7
87967.9
88837.9
90738
95757.8
100505
115682
137401
107761
93127.4
84009.6
80447.9
78515.8
77609.7
77253.2
87386.3
87551.3
88010.7
89321.1
90109.2
97121.3
112720
140531
107708
88832.5
81119.6
79055.2
77780.4
77182.6
76925.1
87159.1
87168
87277.3
85860.3
86924.2
89223.2
100767
149516
100820
81969.8
76984.6
76038.4
77088.4
76742.6
76608.1
87067.1
86945.9
85171.2
84444.6
82401.1
81139
88167.2
143677
84638.7
74585.7
73288.9
75130
74780.3
76523.8
76452.9
87158.4
87007.2
84921.3
83826.8
78941.8
72043.8
58543.4
90938
56529.5
75122.3
73520.3
73514
74616.9
76505.5
76449.3
87484.2
87409.1
85308.8
82941.5
78837.1
66856
2321.02
2578.47
96286.1
105286
78108.1
73422.7
74856
76705.7
76624.7
87990.1
88038.8
86153.2
84370.1
82541.6
82548.1
110496
2312.32
38998.4
90577.5
77882.7
74042.5
75342.1
77071.8
76956.7
88558.1
88729.2
87170.1
87809.1
86336.7
91878.9
112301
164792
100771
82185.4
77021.9
75594.3
76073.7
77613.9
77429.1
89087.1
89416.8
90266.4
89415.7
90172.5
94360.1
109783
177266
114838
87906.3
79513.4
78462.4
79041.3
78297.7
77989.7
89545.3
89987.1
91079.2
93595.6
94576.3
104289
123897
201078
124227
94437.1
84992.6
82237.4
80111.8
79024.9
78568.6
89898.1
90407.2
91723.5
94412.8
100660
105868
127180
157158
120576
98523.5
87995.3
83421
80823.3
79544.6
79019.5
90109.8
90676
91898.4
95311.1
101576
107648
132619
139374
112969
98079
89172.6
84214.3
81269.2
79890.9
79321
90199.2
90778.6
91938.3
95314.6
101104
106078
127054
128911
112222
97753.7
89267.9
84462.1
81480.3
80057
79469.5
91915.4
92559.6
93638.7
95353.3
99919.8
98630.5
97837.9
100641
96963.6
95187.1
91175.5
87559.3
85075.4
83691.6
83041.2
91882.8
92516.5
93643.5
95639.4
100292
99711
99953.7
103192
97771.4
95650
91252.9
87482.5
84944.8
83585.2
82947.9
91820.5
92373.8
93627.3
95567.8
99318.4
101296
104694
111622
101553
95567.3
90473
86994.3
84658.4
83372.6
82786.9
91733.6
92237.8
93350.7
95551.7
97010.8
102307
110426
119616
107693
95826.7
89717.8
86417
84270.5
83122.6
82595.2
91690.8
92110.8
93110.3
93504
96502.4
101004
111185
125205
110611
96174
88483.8
84972
83876.8
82852.3
82410.2
91757.1
92083.6
91841.7
93070.8
94587
98974.1
110093
125942
111363
94150.8
87393
84634.6
82684.8
82724.1
82350.8
91975.6
92312.8
92048.1
93268.6
93893.7
98628.8
109529
125659
79705.4
85655.8
87501.1
84307.5
82776.4
82801.8
82428.5
92339.8
92747.5
92595.4
93123.9
95191.9
102345
122700
139175
21510.5
60033.1
90667
84990.6
83080
83039.1
82642.3
92784.9
93285.5
93322.2
94205
97612
107972
123657
80063.9
33468.2
94684.7
92048.9
85755.6
83561.5
83389.8
82954.1
93237.8
93828.5
93995.1
96538.7
99314.8
110617
132119
173130
119175
103615
92437
86546.7
84178.4
83839.5
83356.9
93647.4
94394.2
96209.5
97235.8
100953
110252
129068
155988
126910
105529
93357.2
87933.9
85986.2
84475.9
83832.2
93953.6
94744
96499.6
99791.4
102586
111126
124710
143375
124878
104972
94311.6
89591.5
86650
85027.6
84302.8
94146.6
94926
96661.5
99462.3
104241
108433
116395
126323
112075
102406
94495.6
90091.1
87064.3
85388.9
84625.7
94216.1
95012.6
96446.2
99133.9
104172
104509
106996
109694
103910
99938.4
94645.3
90313
87272.3
85612.9
84830.4
94218.2
94993.6
96259.7
98654.9
103110
102518
103664
107658
103512
98818.1
94285.6
90276
87325.9
85698.2
84920.8
94697.5
95142.8
95841.8
96064.3
98103.9
97450.4
95040.6
98868.2
95180.6
94473
92331.6
90447.3
88878
87853.3
87301.9
94765.7
95240.2
95998.6
96557.4
98814.6
98083.2
96204.5
97469.9
95589.9
95121.6
92746.6
90630.4
88925.2
87857.4
87287.5
94896.9
95358.6
96333.9
97396.2
99621.4
100214
101641
104521
100290