/*--------------------------------*- C++ -*----------------------------------*\
| =========                 |                                                 |
| \\      /  F ield         | OpenFOAM: The Open Source CFD Toolbox           |
|  \\    /   O peration     | Version:  v2012                                 |
|   \\  /    A nd           | Website:  www.openfoam.com                      |
|    \\/     M anipulation  |                                                 |
\*---------------------------------------------------------------------------*/
FoamFile
{
    version     2.0;
    format      ascii;
    class       volScalarField;
    location    "0.039";
    object      p_rgh;
}
// * * * * * * * * * * * * * * * * * * * * * * * * * * * * * * * * * * * * * //

dimensions      [1 -1 -2 0 0 0 0];


internalField   nonuniform List<scalar> 
449343
(
105155
105272
105463
105631
105673
105346
104484
103012
100987
98623.4
96217.7
94046.3
92302.3
91096
90481.9
105157
105275
105466
105634
105675
105347
104484
103012
100989
98628.2
96223.9
94052.5
92307.6
91100.2
90485.6
105163
105281
105473
105640
105679
105348
104484
103013
100993
98636.9
96236.2
94064.9
92318.1
91108.8
90493
105172
105291
105482
105650
105684
105349
104483
103011
100997
98648.2
96253.8
94083.4
92333.9
91121.6
90504.2
105184
105303
105495
105661
105693
105350
104481
103010
101003
98662.8
96276.5
94107.3
92354.5
91138.4
90518.9
105199
105318
105510
105676
105703
105356
104484
103016
101015
98683.7
96303.8
94135
92378.2
91158
90536.2
105214
105334
105527
105692
105716
105367
104494
103027
101031
98707.4
96330.2
94163
92402.2
91178.5
90554.8
105231
105351
105543
105709
105732
105382
104506
103038
101044
98727
96352.3
94185
92422.5
91197.2
90572.9
105247
105366
105559
105725
105749
105400
104527
103060
101065
98742.9
96366.2
94198.8
92437.1
91212.8
90588.9
105262
105381
105574
105740
105767
105421
104550
103082
101082
98751.4
96371.2
94201.8
92445.2
91224.5
90602.4
105276
105394
105586
105753
105783
105442
104574
103105
101098
98758.4
96372.1
94202.7
92449.6
91233.4
90613.6
105288
105406
105597
105764
105800
105464
104598
103128
101114
98766.5
96372.5
94202.2
92452.7
91240.3
90622.8
105298
105415
105606
105773
105812
105481
104616
103146
101127
98772.4
96372.2
94201.4
92454.9
91245.6
90629.9
105305
105422
105612
105780
105820
105492
104629
103157
101135
98774.8
96371.6
94200.9
92456.5
91249.4
90634.9
105308
105425
105616
105783
105824
105497
104634
103163
101138
98775.8
96371.2
94200.7
92457.4
91251.4
90637.5
105022
105187
105477
105797
106013
105906
105174
103633
101350
98644.3
95938.3
93568.2
91715
90456.1
89821.7
105025
105189
105481
105800
106016
105907
105174
103633
101353
98650.7
95946.2
93575.1
91720.1
90459.7
89824.6
105030
105196
105488
105807
106022
105908
105172
103634
101358
98663.7
95962.9
93589.5
91730.5
90467.3
89830.8
105039
105205
105498
105818
106030
105906
105164
103622
101359
98678.6
95987.5
93611.7
91746.7
90479
89840.4
105051
105218
105513
105832
106041
105900
105155
103614
101346
98697.6
96021
93641.8
91768.4
90494.8
89853.6
105066
105235
105531
105852
106057
105906
105153
103617
101363
98725.1
96060.6
93677.7
91794.8
90514.2
89869.9
105082
105252
105550
105871
106070
105923
105166
103631
101383
98760.7
96110.2
93716.5
91821.9
90535.6
89888.5
105099
105270
105568
105889
106088
105938
105173
103592
101391
98780.6
96137
93741.8
91843.5
90555.4
89907.2
105116
105286
105585
105905
106105
105957
105200
103665
101421
98799.8
96149.6
93754.9
91859.1
90572
89924.8
105132
105301
105598
105919
106124
105975
105223
103689
101438
98798.2
96133.1
93749.7
91865.9
90584.4
89939.5
105147
105315
105609
105928
106137
105998
105253
103715
101448
98800.1
96123.3
93743.5
91869.4
90595
89953.2
105160
105327
105619
105939
106150
106027
105285
103745
101482
98803.3
96112.9
93737.2
91871.8
90603.7
89964.9
105172
105337
105628
105947
106161
106047
105311
103773
101499
98805.3
96105.5
93732.7
91873.9
90610.7
89974.3
105180
105344
105634
105953
106167
106058
105325
103785
101505
98803.7
96100.5
93730.3
91875.9
90615.8
89980.9
105184
105348
105638
105956
106171
106063
105331
103791
101508
98803.3
96098.7
93729.6
91877.1
90618.6
89984.4
104678
104950
105467
106146
106823
107276
106938
105221
102249
98645.8
95203.5
92382.8
90292.7
88922.2
88245.6
104680
104953
105471
106151
106827
107277
106935
105220
102253
98656.1
95214.7
92390.4
90296.7
88924.2
88246.7
104685
104958
105479
106162
106838
107282
106928
105222
102263
98682
95242.4
92408.2
90305.8
88928.7
88249.5
104692
104968
105492
106179
106855
107276
106896
105206
102236
98707.9
95288.4
92438.7
90321.2
88936.8
88254.8
104703
104982
105512
106203
106874
107254
106821
105122
102175
98760.3
95348.5
92480.3
90344.2
88949.4
88263.5
104719
105001
105538
106233
106910
107244
106802
105126
102199
98816.1
95429.8
92534.2
90373.3
88967
88276.7
104736
105021
105561
106263
106916
107269
106808
105134
102221
98864.5
95580.7
92597.3
90409
88989
88294.1
104756
105042
105583
106287
106943
107298
106848
105181
102237
98890.1
95610.2
92627.2
90433.8
89011.2
88314.3
104774
105058
105598
106301
106956
107309
106851
105179
102269
98911.8
95629.1
92642.7
90451.7
89030.2
88334.8
104793
105076
105613
106307
106984
107321
106882
105208
102286
98903.6
95517.2
92618.8
90454.9
89046.6
88355.3
104811
105090
105619
106310
106981
107362
106932
105237
102296
98879.3
95467.1
92597.1
90458.6
89062
88375.3
104828
105104
105628
106314
106990
107409
107031
105342
102375
98848.1
95429.7
92579.7
90461.3
89076
88393.4
104843
105116
105635
106317
106992
107434
107080
105374
102417
98838.3
95400.3
92567.1
90465
89087.9
88408.5
104853
105125
105642
106320
106994
107443
107100
105385
102419
98823.8
95384.4
92561.7
90468.8
89096.7
88419.4
104859
105130
105646
106323
106997
107447
107109
105392
102422
98820
95379.7
92560.5
90471.4
89101.4
88425.2
103996
104425
105281
106538
108066
109591
110383
108332
103852
98367.2
93679.7
90237.6
87870.8
86390.6
85681.2
103996
104425
105284
106543
108073
109596
110372
108329
103851
98382.6
93694.1
90243.6
87871.5
86389
85678.8
103997
104429
105292
106559
108094
109612
110365
108350
103896
98445.5
93737.4
90260.2
87874.3
86386.8
85674.9
104000
104436
105308
106591
108126
109635
110191
108354
103796
98561.2
93827.3
90292.7
87881.5
86385.6
85671.2
104008
104448
105333
106626
108179
109592
109424
108076
104629
98753.1
93951.7
90350.9
87896.4
86387.9
85670.1
104023
104471
105377
106713
108278
108819
109325
108060
104695
100048
94123.5
90427.5
87922.6
86395.4
85674.5
104039
104493
105411
106752
107645
108867
109310
108044
104692
100110
95481.9
90504.4
87954.4
86413.8
85687.5
104060
104520
105442
106783
107667
108908
109357
107979
104722
100157
95500.6
90539
87993.3
86441.6
85708.3
104083
104536
105453
106795
107684
108920
109360
108083
104754
100179
95532.2
90558.9
88003.3
86462.6
85735.6
104110
104558
105465
106801
108367
108907
109391
108131
104772
100183
94242.3
90534.7
88022.1
86490.6
85767.6
104134
104574
105458
106751
108305
109721
109526
108193
104800
98899.1
94099
90492.9
88033
86520.8
85801.2
104160
104595
105466
106748
108283
109789
110350
108514
103960
98726.7
93994.5
90458.8
88045.5
86547.9
85832.4
104182
104613
105474
106739
108272
109784
110538
108520
104068
98622.4
93918.6
90443.7
88058.3
86570.8
85858.7
104198
104626
105482
106739
108265
109782
110559
108514
104038
98572.2
93887.8
90440
88069.3
86587.6
85877.6
104207
104634
105488
106742
108266
109784
110576
108523
104046
98565.5
93881.3
90441.2
88075.9
86596.6
85887.6
102776
103376
104625
106616
109413
112933
116629
113804
106272
97044.2
90661.7
86731.9
84257.2
82798.2
82128.1
102772
103373
104624
106620
109423
112945
116617
113809
106293
97077.7
90677
86730.3
84250.1
82790.1
82119.8
102765
103368
104625
106635
109462
112993
116627
113829
106376
97164.4
90720.9
86729
84236.5
82775
82104.4
102758
103367
104639
106698
109617
113119
114321
113921
108013
97626.6
90894.7
86748.6
84218
82754.5
82084.5
102753
103366
104660
106755
109688
111635
114279
113840
108100
99965.2
91075.3
86772.3
84202.2
82732.6
82064.7
102762
103390
104730
106963
108838
111816
114290
113711
108050
100245
93364.9
86883.3
84180.4
82720.4
82051.6
102768
103398
104747
106398
108923
111923
113389
113073
108459
101310
93605.2
88796.1
84140.4
82707
82050.2
102796
103434
104838
106432
108992
111986
113435
113093
108534
101411
93733.4
88895
84284.6
82731.6
82075.6
102823
103447
104796
106443
109004
112006
113448
113142
108561
101457
93758.6
88919.7
84201.2
82766.7
82108.6
102867
103498
104837
107071
108932
111929
113545
113184
108577
100482
93612.8
87029
84309.6
82838.8
82165.3
102907
103517
104812
106905
109840
111817
114393
113872
108181
100292
91272.2
86954.2
84371.4
82894
82222.8
102951
103559
104829
106887
109803
113301
114466
114077
108299
97827.9
91098.8
86950.3
84415.5
82948.9
82277.3
102988
103590
104844
106849
109671
113193
116825
114042
106565
97363.4
90932
86945.6
84454.7
82993.4
82322.7
103015
103614
104862
106853
109650
113162
116828
114013
106499
97295.1
90902.8
86960.8
84483.4
83024.9
82355.1
103030
103628
104873
106858
109649
113158
116848
114018
106493
97278.5
90899.1
86971.4
84499
83041.5
82372.1
100773
101496
103060
105751
110055
116847
122333
127547
113669
92347.1
84953.6
81327.2
79210.7
78086.8
77608.1
100761
101484
103051
105748
110066
116860
122334
127547
113686
92376.3
84954.2
81307.2
79190.2
78068.9
77591.6
100738
101462
103029
105730
110073
116904
122324
127535
113679
92365.1
84910.5
81241.3
79145
78033.5
77560
100711
101440
103024
105777
110443
114715
122387
127598
113657
96894.6
84980.4
81107.2
79070.1
77982.6
77516.5
100681
101404
102988
105836
109220
114981
122645
125153
115026
97587.8
88281.6
80966.1
78929.4
77909.4
77467.4
100669
101388
103049
105421
109319
114029
120866
124056
115021
99944.6
88465
83427
78798.5
77833.4
77424.9
100661
101367
103051
105473
109463
114080
119962
124058
115586
100997
90280.5
83518.9
78709.5
77778.8
77402.2
100679
101372
103072
105557
108847
113594
120008
124092
115675
101187
90384.5
83598.2
80726.9
77773.8
77424.5
100729
101434
103119
105562
108872
114106
120051
124165
115797
101312
90467.4
83616.4
78804.2
77856.9
77475.5
100802
101521
103180
105520
109537
114189
120057
124236
115852
101291
90515.1
83672.8
78963.2
77979.6
77564.9
100871
101592
103176
106023
109384
115191
120932
125233
115279
100080
88677.3
81206.7
79142.8
78108.7
77660.9
100950
101678
103260
106008
110670
114950
122595
127778
113860
97300.6
85229
81354.5
79311.4
78219.3
77750.8
101014
101735
103298
105993
110327
117142
122531
127714
113858
92573.3
85154.9
81498.9
79407.2
78297.1
77823.8
101061
101781
103343
106032
110339
117115
122544
127748
113896
92621.7
85218.9
81581.3
79469.9
78351.5
77875.4
101085
101805
103364
106045
110338
117111
122579
127785
113937
92643.2
85241
81615.2
79501.1
78379.5
77902.1
97770.8
98469.5
100034
102895
107810
114573
130950
160694
117578
84604.8
74566.6
73300.2
72578.8
72344.5
72280.2
97747.1
98443.9
100005
102864
107783
114551
130911
160671
117588
84624.2
74532
73250.7
72543.1
72315.8
72254.8
97700.5
98389.3
99936.7
102768
107641
114489
130782
160591
117672
84639.8
74382.9
73126.1
72463.4
72255.7
72205.2
97638.9
98317.8
99849.7
102515
106971
114782
130717
160382
117393
84655.3
77703.1
72734.6
72321.8
72164.9
72136.1
97560.6
98211.8
99643.6
102550
106957
113850
127701
160119
118195
88503.5
77351.4
74855.7
72026.4
72041
72055
97496.9
98073.2
100087
102591
106676
113778
126227
155024
122980
90507.6
79626.5
74734.6
73690.9
71906.5
71986.9
97474.8
98041
100085
102583
106694
113336
126091
154873
123093
90706.1
81024.6
76342.8
73641.9
71896.5
71968
97479.2
98045.7
100166
102631
106708
113319
126056
154883
123523
91141.4
81247.5
76450.7
73724.1
71938.8
71972
97560.9
98127.3
100166
102693
106770
113363
126105
154992
124069
91543.1
81432.8
76543.4
73742.4
71991.4
72063.1
97666.6
98243
100235
102697
106832
113455
126227
155107
123944
91438.6
81416.6
76584.7
73853.8
72083.1
72159.1
97803.8
98453.8
99885.4
102748
107142
114013
126432
155269
123461
91042.8
80120.9
75083.5
72297.7
72287.8
72293.5
97941.1
98618.5
100149
102806
107099
114918
127961
160388
117643
89070.8
77878.1
73033.6
72616.9
72454.8
72423.3
98047.1
98733.3
100276
103098
107959
114734
130994
160647
117635
84813
74659.1
73432.1
72780.9
72577
72527.7
98123
98816
100370
103216
108121
114852
131131
160828
117741
84869
74842.3
73578.8
72881.8
72660
72601.3
98161.1
98855.5
100411
103260
108158
114883
131216
160924
117927
84972.7
74924.8
73651.1
72932.1
72701.4
72639.1
93711.8
94131.3
95067.3
96795.4
99662.3
106256
113574
111148
24677.3
54264.4
59753.5
62884.5
64831
66047.3
66600.8
93675.9
94090.9
95019.4
96734.4
99605.2
106193
113518
111021
24344
54284.3
59676.8
62827.8
64792.5
66012.4
66568.9
93603.6
94002.9
94912.7
96614.2
99432.5
106032
113356
110828
25813.4
54402
59577.9
62766.3
64722
65944.5
66509.4
93504.8
93868.9
94739.7
96274.3
100631
105549
113008
110551
25834.5
54444.1
60863.1
62725.6
64626.8
65852.7
66433.4
93380.6
93706.4
94486.1
97337.3
100303
105845
113655
110174
25403.7
57630.2
62319.9
63919.9
64609
65780.7
66357.6
93258.7
93561.3
95557.7
97173
100711
106001
113340
109704
25449.4
58028.9
63356.3
64058
65646.1
65789.4
66309.1
93233.2
93524.7
95520.6
97079.3
100931
105884
113145
109410
26088
58646.5
63813.4
65144.4
65660.2
65834.2
66320.8
93255.1
93535.3
95514.1
97731.6
100932
105848
113067
109198
28006.4
59872.1
64367
65851
65793.4
65905.6
66348.6
93346.3
93637.5
95574.2
97777
100984
105898
113111
109224
37318.6
60980.2
64652.6
65970
65823.5
65949.3
66432.1
93480.3
93783.1
95709.2
97275
101080
106033
113279
109478
34954.1
60334.6
64394
65417.2
65854.9
66006.2
66519.6
93694.9
94019.6
94802.5
97502.9
100986
106238
113564
109882
26380.5
58912.9
63858.8
64301
64932.9
66082
66651.3
93891.8
94253.3
95119.7
96648.6
100817
105494
112917
110494
25114.8
56454.5
61072.8
63078.7
64985.6
66208.2
66787.4
94044.8
94439.6
95340.2
97027.1
99831.8
106126
113431
110864
24676.4
54458.3
59882.6
63129
65107.8
66339
66906.8
94151.8
94560.8
95477.6
97175.5
100027
106501
113736
111150
24424
54541.6
60035.3
63220.2
65204.9
66435
66995.6
94204.7
94617.6
95540
97248.1
100089
106620
113875
111313
25079.2
54802.6
60200.6
63313.8
65263.9
66486.1
67042.9
88869
88770.6
88545.5
88189.1
88095
91971.8
95597.4
108723
4065.11
33197.1
46232.1
53134.5
57624.7
60237.6
61407.9
88824.3
88720.4
88488.8
88123.7
88041.7
91902.3
95533.2
108509
2280.02
33194.3
46139.6
53090.6
57585.3
60197.3
61369.8
88738.4
88621.5
88377.6
88041
87918.3
91732.4
95359.5
108329
4073.2
33283.2
46122.7
53072
57525.6
60131
61304.3
88625.9
88473.7
88209.5
87979.7
90556.4
91583.8
95033
108040
3703.62
33433.5
46204.3
53167.8
57474
60061.3
61231.6
88501.8
88320.9
88089.8
89873.7
90463.3
93262.4
95931.2
107831
2257.16
33170.5
46751.7
53789.7
57493.3
60040.5
61180
88393.2
88273.8
89559.9
89714.1
91577.9
93921.6
95674.5
107151
2322.79
33696.1
47233.1
53823.3
58080
60049.8
61163.9
88386.1
88276.5
89447.8
89666.8
92148.3
93771.7
95487.2
106832
5106.02
35019.4
47821.4
54371.9
58121.6
60078.9
61179.5
88424.5
88309.7
89440.2
90628.7
92122.7
93727.3
95415.4
106594
2660.93
38363.5
48717
54842.2
58204.6
60151
61219.2
88540
88428.4
89520.8
90695.9
92192.2
93793.2
95474
106628
2959.7
39259.2
48918.2
54952.6
58281.9
60220.6
61315.6
88687.1
88567.8
89688
89943.7
92340.5
93965.4
95663.8
106954
2174.62
35852
48245.2
54658.6
58365.2
60315
61422.8
88912.4
88729
88496.8
90083.2
91947.5
94236.2
95960
107466
2904.77
34348.7
47675.9
54149.6
57884.2
60411.1
61543.4
89126.8
88970.6
88697.6
88457.8
90954
92050.2
95441.7
108206
2582.13
33738
46784.2
53604.4
57917.5
60502.1
61671.4
89304.4
89180.6
88921.4
88561.1
88418
92074.4
95542.5
108464
2511.02
33546.8
46508.7
53517
58002.1
60620.3
61798
89430.7
89317.8
89067.7
88675.6
88563.6
92281.4
95827.9
108758
2654.04
33574.1
46572.9
53568.8
58093
60720.3
61899.1
89495
89386.6
89140.8
88754.3
88628.3
92422.6
95988.9
108936
2571.37
33709.7
46740.5
53652.6
58156.1
60779.8
61955.6
83943.7
83274.3
81874.6
79599.6
79146.8
77788.9
80104.8
2378.26
25515.9
39332.7
47369.2
52908.7
56210.5
57743.8
83891.4
83215.4
81807.2
79525.6
79077.3
77715.2
80041.1
2197.04
25390.2
39226.8
47308.6
52844.5
56151.9
57689.2
83797.8
83113.6
81682.6
79398.5
78985.7
77588.7
79871
2205.74
25254.3
39192.2
47217.6
52731.4
56053.5
57593.6
83687.4
82985.6
81519.1
79371.9
79098.1
77367.8
79560.4
2226.89
25188.9
37861.2
47212.5
52603.8
55939.8
57481.6
83590.6
82871.7
81488.3
81294.6
79468
79247.6
80047
2240.65
22988
37215.7
46551.9
52491
55860.8
57387
83526.1
82907.3
82850.7
81429.5
80626.9
80062.5
79840.1
2293.02
23190.8
36897.4
46402.2
52196.6
55735.5
57332.4
83539.5
82925.9
82822.5
81464
81326
79985.8
79690.2
2179.99
24474
37055.9
46154.9
52139
55679.3
57304.5
83598
82989.4
82859.6
82345
81431.1
79972.7
79637.1
2298.17
30384.5
37719.9
46175.8
52137.9
55730.6
57338.2
83748.6
83132.9
82978.4
82454.7
81529.1
80062.6
79723.9
2253.9
26831.3
37732.2
46296.4
52266.4
55853.3
57471.4
83919.1
83299.3
83164.8
81820.6
81604.8
80239.3
79925.5
2846.07
23505.6
37251.5
46483.5
52480.7
56065
57653
84133.8
83414.8
82035
81749.8
81043.6
80438.8
80188.1
2283.7
23216.2
37234.9
46868.9
52969.5
56321.3
57840.8
84341.7
83637.2
82157.9
79982.6
79642.3
77942.5
79608
2339.88
24234.2
38404.6
47761.9
53161.1
56494.4
58033.7
84527.9
83834.9
82381.9
80050.9
79522.3
78001.5
80132
2375.72
25465
39684.8
47781.5
53332.2
56668.3
58212.5
84666.8
83978.4
82541.2
80208.8
79698.3
78202.9
80410.7
2377.38
25698.2
39736.3
47897.4
53475.9
56804.5
58349.8
84740.7
84057.1
82625.3
80296.1
79758.8
78327
80580
2397.25
25892.5
39872
47982.6
53559.6
56883.3
58425.2
79848.6
78665.4
76174
71768.1
69245.5
61249.4
56453.5
5846.29
2169.18
25327.2
37879.5
45935.2
51461.3
54778
56366.5
79780.7
78586.2
76073.2
71639
69136.8
61129.9
56376.8
2318.9
2196.03
25205.6
37685.9
45818.5
51343.3
54681.9
56279.6
79659.9
78449.1
75882.6
71372.7
68922.7
60854.1
56161.9
2631.98
2200.36
21510.2
37505.6
45570.1
51116.9
54505.4
56118
79518.3
78287.7
75608.4
71072.6
68603.4
60447.8
55883.7
3271.09
2245.41
21279.7
34432.6
45232.2
50795.8
54268.6
55910.4
79400.8
78122.8
75339.7
73723.3
67995.2
63078.6
57539.3
2937.89
2266.22
18758.9
32624
43040.8
50434.9
54039.2
55699.4
79331
78021.7
77124.1
73391.2
69743.1
64173.3
57444.7
2895.91
2284.65
18105.5
31188.1
42376.4
48973.8
53754.9
55527.2
79334.5
78001.1
77068.6
73154.9
70463.4
63986.7
57304.8
2367.7
2862.43
14766
29515
40943.4
48656.5
53596.3
55423.7
79417.6
78091.8
77109.1
74617.7
70433.5
63945.6
57222.3
2353.86
2287.42
2297.47
27836.8
40151.7
48552.3
53615.1
55446.5
79617.9
78291.5
77296.3
74798.8
70588.2
64085.8
57355.5
2262.21
2178.27
14164.4
29120.2
40410.6
48754.4
53812.5
55632.2
79861.7
78560.7
77586.4
73714.5
70918.1
64356.1
57565
2287.55
2300.15
15654.6
30374.1
41513.3
49190.4
54169.3
55930.8
80125.7
78861.7
76103.2
74294
70450.3
64695.2
57775.7
2336.96
2326.02
17927.7
31656.9
43206
51049.9
54623.9
56274.3
80376.6
79151.9
76468.4
71886.5
69045.8
60868.5
56201.3
2368.45
2342.35
20443.5
34871.4
45954.1
51518.6
54978.4
56610.8
80603.4
79385.9
76797
72224.6
69439.8
61250.7
56454.3
2440.85
2376.39
21783.4
38131.3
46303.7
51888.8
55286.3
56899
80772
79564.5
77014.8
72508.3
69789.6
61606.7
56708.5
2353.85
2388.94
25545.5
38278.6
46548.6
52137.6
55502.5
57107.7
80862
79662.5
77130.6
72650.4
69966.5
61850.3
56964.4
2839.93
2417.66
25881.6
38484.5
46672.1
52267.6
55617.4
57216.6
77400.7
75858.1
72569.4
66703.6
56362.3
45927.6
19550.8
2270.59
2175.54
28832
40616.4
48044.8
53043.3
56020.6
57447.1
77306.4
75745.1
72411.3
66495.3
56088.2
45657.9
19615.8
2288.29
2195.77
28470.5
40291.2
47826.3
52854.1
55875.2
57321.4
77135.7
75542.3
72124.2
66121.9
55543.7
44914.4
19414.4
2251.06
2209.13
22999.7
39770.3
47389.6
52489
55598.1
57082.5
76924.4
75298.9
71726.7
65610.3
59243.7
44083.8
19117.9
2246.51
2439.36
22466.5
35060.4
46654.2
51940.6
55203.3
56758.4
76733.6
75049.4
71363
67620.3
58736.6
47354.4
25314.6
2274.28
2270.68
17833.2
32045.6
43046.1
51306.4
54780.5
56409.5
76610.4
74861.6
72734.1
67246.2
60469.5
48787.2
25887.9
2240.91
2287.69
16140.5
29369.1
41840.9
48758.2
54370.1
56104.3
76594.2
74801.4
72679.1
66937.4
61120
48392.5
25622.4
2298.95
3162.08
9537.53
26051
39211.1
48109.2
54112
55928.8
76710.8
74925.2
72745.5
68396.7
60989.4
48251.5
25525.7
2241.34
2277.96
2297.45
22598.5
37595.2
47904.2
54103.7
55949.4
76984.8
75224
73015
68665.9
61271.1
48534
25732.4
2240.81
2274.25
7768.84
24383
37936.1
48208.9
54389.5
56198.4
77331.3
75626
73416.9
67841.3
61857.8
49066.6
26055.2
2277.62
2268.63
10360.4
27151.3
40024.2
48911.1
54909.7
56624.7
77698.6
76061.9
72457.6
68519.3
61509.5
49584
26182.8
2234.81
2322.96
15730.1
30022.8
43161.7
52114.7
55544.1
57147.4
78045.4
76446.6
72905.7
66765.9
60034.8
44625.2
21025.3
2296.34
2359.79
20561.7
35546.9
47660.4
52910.2
56124.4
57652.8
78347.2
76757.9
73328.8
67246.3
56436.5
45201.3
19618.7
2282.26
2386.78
23203
40639.3
48384.5
53502.4
56599.5
58071.8
78564.4
76995.3
73624.9
67606.7
56987.1
45960.6
19798.1
2262.74
2401.07
28852.8
41054.1
48774.7
53875.5
56915.6
58362
78679.2
77123.2
73792.2
67825.5
57316.5
46545.6
20178.2
2273.74
2427.82
29230.3
41329.1
48973.2
54065.3
57076.4
58509.9
77196.3
75680.4
72431.5
66819.8
56814.5
45363
9551.78
2266.26
16841.6
38743.6
47590.4
53431.7
57312.4
59587.4
60684.3
77073.3
75530.9
72212.4
66483.7
56512.2
44361.8
8827.03
2253.17
16737.5
38056.8
47110.5
53085.6
57045.8
59396.1
60524.2
76851.6
75259.6
71815.3
65899.8
56276.3
42399.9
9629.7
2272.26
10923.4
29724.4
46295.3
52428.4
56543.5
59034.6
60222.2
76574.2
74927.5
71312.5
65244.2
57108.9
40672.1
9700.82
2266.93
5541.4
27793.9
40235.2
51380
55789.2
58519.3
59812.7
76318.8
74593.4
70859.6
65794.9
56044.8
41946.7
18932.5
2275.33
2276.4
20274.3
35759.7
46746.5
54968.9
57956.8
59375.1
76148.1
74363.6
71282.2
65074.5
56472.3
42019
18483.5
2256.75
2406.61
17139.2
31763.1
45047
51685
57499
59001.3
76123.7
74271.4
71119.7
64548.1
56347.9
40782.6
17729.6
2258.59
2232.29
10314.4
27731.1
41573.4
50855.4
57192.4
58798.1
76288.9
74444.4
71225.4
65572.1
56003
40137.4
17333.6
2246.05
2498.32
2275.64
23863.5
39349.2
50561.6
57192.8
58835.1
76652.7
74877.9
71652.4
66044
56639.7
41007
17736.2
2248.13
2369.27
2421.07
24537.4
39623.1
50938.3
57558
59144.2
77108.4
75429.8
72229.2
66131.2
57830.4
42580.3
18946.3
2300.96
2241.34
3113.7
27973.2
42558.5
51878.1
58205.9
59668.9
77579.4
75961.1
72444.3
67084.1
58333.2
43667.1
19305.3
2206.21
2340.75
17356.9
32848.5
47043.6
56110.1
58963.7
60317.7
78012.6
76434.2
72934.1
66931.7
58090.1
41452.5
18434.5
2316.66
4889.5
25226.3
40898.7
52912.7
57124.1
59716
60946.1
78380.9
76820.5
73409.3
67445.8
57483.2
42196.4
9565.69
2261.58
7564.58
29654.5
47677.4
53845.3
57895
60316.7
61463.8
78643.7
77110.7
73781.3
67945.5
57717.7
44884.2
8416.95
2226.83
13382.3
38383
48128.2
54363.9
58377.4
60711.6
61819.8
78783.2
77266.6
73994.7
68270.3
58074
46254
9557.27
2286.04
12878.9
38743.6
48480.5
54640.2
58626.2
60912.5
62001.2
79372.6
78366.4
76276.9
73166.4
66694.5
59511.3
46025.9
8991.76
48064.5
56249.7
59050.3
61931.8
63829.5
64989.2
65589.5
79228.3
78183.1
75998.5
72642.2
65969
58156
39435
2266.53
44254.1
54928.1
58283
61442.8
63503.2
64769.9
65411.2
78969.7
77850.6
75493.5
71676.3
66423.6
53097.6
27582.2
2376.47
24259.6
44824.6
57467.4
60602.2
62923.4
64369.9
65083.5
78646.3
77423.2
74787.6
70552.5
63519.6
50575.5
23636.1
2477.6
13340.1
41424.9
50405.3
59376
62055.6
63814.7
64648.1
78347
76987.9
74091.6
69282
61222.4
48341.8
24591.8
2517.72
2267.75
29565.6
44776.4
54109.7
61211.7
63215.4
64198.7
78148
76711.7
73465.3
67803.4
59333.7
45410.7
22877.6
2279.99
2243.4
22581.2
39422.5
52315.2
57484.3
62811.9
63846.4
78127.7
76603.2
73023.2
66825.9
57577.9
41160.6
18752.7
2082.04
2308.39
16134.7
35014.2
48452.6
56734.2
62562
63676.2
78349.5
76842.1
73153.2
67152.8
56588.7
37485.2
15128.2
3685.31
2307.55
3973.84
30752.4
45979
56531.7
62623.3
63758
78814.4
77443.3
73803.7
68021.7
58164.7
41357.8
18665.9
2298.18
2300.01
2080.9
30582.9
46250.7
56971.4
63035.4
64109.1
79372.6
78140.3
74665.5
69552.4
60764.6
46628.9
28306.5
11336.9
2189.68
12085.2
35371.8
49781.8
58006.1
63724.2
64677.6
79930.4
78766.1
76306.5
70960.3
62839.7
49081.7
25083.6
2139.87
9412.15
27982.3
42123.5
55097.7
62788.2
64507.5
65368.6
80429.6
79342.7
76976.4
73087.7
64719.1
50899.7
23903.3
2309.17
13060.4
38325.6
52123.5
61670.4
63853.5
65330.3
66045
80843.3
79804.3
77578.7
73841.3
68358.3
52929.1
22541.1
2528.89
22673
45472.7
59799.4
62644.1
64702.9
65975.6
66602.4
81135.4
80133.2
78005
74597.7
67646.8
59142.1
36331.8
2423.43
45099.6
57039.6
60071.6
63261.4
65234.3
66402.5
66987
81290.2
80311
78256.2
75085.3
68425.1
61615
46427.3
18004.4
48258.6
58266.1
60671.1
63637.8
65528
66625.9
67186.1
83327.4
83129.8
82816.9
83698.9
85752.1
92723.3
139212
155766
103652
80751.1
74344.2
72468.8
71675.2
71484.9
71495.7
83181.3
82928.9
82520.4
83094.5
84749.2
92230.7
141749
147242
101312
79422.7
73360.9
71901.7
71328.5
71264.6
71322.6
82917.6
82558.6
81971.7
81491.8
83009.9
80368.9
109297
109896
93665.7
72058.2
71400.9
70805.6
70739.4
70877.6
71013.4
82586.4
82078.3
81073.1
79884.7
76416.1
74847.8
85968.5
88943.6
74738
67133.4
65946.5
69395.5
69885.7
70367
70614.7
82289.2
81603.9
80239.7
76649.7
73114.5
66449.5
53511.1
14440.2
36964.5
52841.7
59790.3
64751.3
69077.3
69824.3
70221.9
82110.8
81331.1
78421.2
74847.7
68700
59116.7
42934.2
2319.74
2336.87
41725.6
54178.7
63302.9
65708.2
69514.9
69968.8
82129.7
81283.5
77930
73707.2
65225.4
49427.2
27010.1
2265.14
2173.81
32337
50788
59921.3
65207.7
69389.1
69884.9
82415.8
81626.1
78159.8
73319.5
63734.1
38859.8
2313.4
2293.68
2260.09
18060.6
48539.2
58040.7
65302.4
69539.7
70025.2
82941.9
82286.4
78994.5
74624.1
66856.3
51531.9
28722
2845.6
2296.45
18548.3
48658.6
58493
65785
69952.5
70390.1
83558.7
83056.5
80054.6
77653.9
70993.6
62934.8
42584.7
10613.8
1818.84
35680.1
52989.1
61760.7
66686.3
70595.4
70939.9
84157.5
83751
83037.5
79245.5
74587.6
67098.3
47897.9
2307.63
39095.1
52815.4
59041.6
66651.6
71007.1
71363.6
71593.9
84684.9
84390.8
83847.4
83425.9
78773.5
75992.8
55655.9
5055.6
54665.3
65292.9
68852.7
72366
72105.1
72174.2
72251.1
85112.3
84895.6
84589
84479.5
86285.6
80159.8
94036
112757
85900.8
73537.6
74740.4
73477.8
72939.5
72790.7
72789.7
85404.7
85239.5
85003.1
85720.3
87188.5
95607
142238
148581
103284
82620.2
75946.3
74327.8
73473.5
73205.8
73162
85556.4
85420.8
85234.2
86203.6
87736.5
95706.2
136924
141152
103361
83589
76583.8
74765.5
73781.5
73428.7
73358.4
87869.9
88351.2
89325.5
92317.2
98718.5
102839
124650
129558
108279
94782.2
86689.8
81875.6
79226.9
78022.5
77545.3
87764.7
88197.4
89140.5
92075.3
98283.7
103296
127492
137570
108527
94127.6
86052.3
81464.9
78948.1
77844.3
77410.1
87564.6
87869.8
88739.8
90639.9
95659.7
100402
115579
137298
107658
93024.4
83911.5
80349.8
78417.7
77511.6
77155.1
87307.8
87472.8
87932.3
89242.6
90025.8
97037.9
112637
140445
107622
88749.1
81036.2
78976.7
77701.9
77104.1
76846.7
87100.2
87109.2
87218.5
85796.6
86860.4
89157
100700
149449
100752
81902.4
76918.3
75974.7
77029.5
76683.7
76549.2
87027.9
86906.7
85127
84400.5
82354.5
81091.2
88119.3
143629
84590.9
74537.8
73241.1
75085.8
74736.2
76484.6
76413.7
87138.7
86987.5
84896.8
83802.2
78913.6
72015.6
58515.2
90909.8
56501.2
75094.1
73492.1
73487.1
74592.4
76485.9
76429.7
87484.2
87409.1
85303.9
82934.1
78828.5
66847.4
2313.99
2573.99
96277.5
105277
78099.5
73414.2
74851.1
76705.7
76624.7
88009.7
88058.4
86167.9
84382.4
82552.7
82559.1
110507
2315.25
39009.4
90588.5
77893.7
74053.6
75356.8
77091.4
76976.3
88597.3
88768.5
87204.4
87843.4
86367.3
91909.5
112332
164823
100802
82216.1
77052.5
75626.2
76108
77653.2
77468.4
89146
89475.6
90325.3
89469.6
90224
94410.3
109834
177316
114888
87956.6
79563.7
78516.4
79100.1
78356.6
78048.5
89623.8
90065.6
91157.7
93674.1
94649.9
104362
123968
201148
124297
94508.2
85066.2
82315.9
80190.3
79103.4
78647.1
89996.2
90505.3
91821.6
94510.9
100758
105961
127273
157251
120669
98616.7
88093.4
83519.1
80921.4
79642.7
79117.6
90227.6
90793.7
92016.2
95428.8
101694
107766
132736
139491
113087
98196.7
89290.3
84332
81387
80008.6
79438.7
90336.6
90915.9
92075.6
95451.9
101241
106216
127191
129048
112359
97891
89405.2
84599.4
81617.6
80194.3
79606.8
91778
92422.3
93501.4
95216
99782.4
98493.2
97700.6
100503
96826.2
95049.7
91038.2
87421.9
84938
83554.2
82903.9
91765.1
92398.8
93525.7
95521.7
100174
99593.3
99836
103074
97653.6
95532.2
91135.1
87364.8
84827.1
83467.5
82830.2
91722.4
92275.7
93529.2
95469.7
99220.3
101193
104591
111519
101450
95464.3
90374.9
86896.2
84560.3
83274.5
82688.8
91655.1
92159.3
93272.2
95473.2
96927.4
102224
110342
119530
107607
95743.3
89634.5
86338.5
84192
83044.1
82516.7
91632
92051.9
93051.4
93440.2
96438.6
100938
111117
125137
110543
96106.6
88417.6
84908.2
83818
82793.5
82351.4
91717.8
92044.3
91797.6
93026.6
94540.4
98926.3
110045
125894
111315
94103
87345.2
84590.4
82640.7
82684.9
82311.6
91956
92293.2
92023.6
93244
93865.5
98600.6
109501
125630
79677.2
85627.5
87472.9
84280.5
82751.9
82782.2
82408.9
92339.8
92747.5
92590.5
93116.5
95183.3
102336
122692
139167
21501.9
60024.5
90658.4
84982
83075.1
83039.1
82642.3
92804.5
93305.1
93337
94217.2
97623
107983
123668
80074.9
33479.3
94695.7
92059.9
85766.6
83576.3
83409.4
82973.7
93277.1
93867.8
94029.4
96573
99345.5
110648
132149
173160
119206
103646
92467.7
86578.6
84212.7
83878.7
83396.1
93706.3
94453.1
96268.3
97289.7
101004
110303
129119
156038
126960
105579
93407.4
87987.9
86045.1
84534.8
83891.1
94032.1
94822.4
96578.1
99869.9
102660
111199
124781
143445
124948
105044
94385.1
89670
86728.5
85106.1
84381.2
94244.7
95024.1
96759.6
99560.4
104339
108526
116489
126416
112168
102499
94593.7
90189.2
87162.4
85487
84723.8
94333.8
95130.3
96563.9
99251.6
104289
104627
107113
109812
104028
100056
94763
90430.7
87390.1
85730.7
84948.1
94355.5
95131
96397.1
98792.2
103247
102655
103802
107795
103649
98955.5
94422.9
90413.4
87463.2
85835.5
85058.1
94560.1
95005.4
95704.5
95927
97966.6
97313
94903.2
98730.9
95043.3
94335.6
92194.2
90309.9
88740.7
87715.9
87164.6
94647.9
95122.5
95880.9
96439.6
98696.9
97965.4
96086.8
97352.2
95472.2
95003.8
92628.8
90512.7
88807.5
87739.7
87169.7