/*--------------------------------*- C++ -*----------------------------------*\
| =========                 |                                                 |
| \\      /  F ield         | OpenFOAM: The Open Source CFD Toolbox           |
|  \\    /   O peration     | Version:  v2012                                 |
|   \\  /    A nd           | Website:  www.openfoam.com                      |
|    \\/     M anipulation  |                                                 |
\*---------------------------------------------------------------------------*/
FoamFile
{
    version     2.0;
    format      ascii;
    class       volScalarField;
    location    "0.007";
    object      p;
}
// * * * * * * * * * * * * * * * * * * * * * * * * * * * * * * * * * * * * * //

dimensions      [1 -1 -2 0 0 0 0];


internalField   nonuniform List<scalar> 
449343
(
93979.3
94142.7
94424.5
94731.6
94924.3
94827.7
94202.2
92976.3
91190.6
89039.1
86806
84764.1
83109.4
81958.1
81370.1
93965.3
94128.9
94411.1
94718.3
94910.8
94813
94186.7
92960.8
91176.2
89026.3
86794
84751.8
83096.1
81943.7
81355.1
93956.3
94120.5
94403.5
94710.8
94902.3
94801.8
94173.6
92947.6
91165.4
89019
86789.1
84746.5
83088.6
81934.2
81344.5
93951.4
94116.4
94400.3
94707.5
94897.4
94791.8
94161.5
92934.5
91155.4
89014.5
86789.5
84747
83086.3
81928.9
81337.5
93949.1
94115.1
94400.1
94707.1
94894.4
94783
94149.2
92921.8
91147.1
89012.8
86793.9
84751.7
83087.6
81926.5
81333
93947.6
94114.5
94400.6
94707.3
94892.6
94776.5
94139.1
92911.9
91141.4
89014.5
86800.4
84758.7
83090.6
81925.5
81329.8
93944.6
94112.3
94399.5
94706.4
94889.7
94771.5
94131.8
92903.7
91137.5
89017.9
86806.6
84765.5
83092.6
81923.7
81326.1
93938.5
94106.6
94394.5
94702.1
94885
94766.9
94124.1
92894.9
91129.5
89015.1
86805.3
84763.8
83089.1
81918.6
81320.2
93928.3
94096.5
94384.7
94692.9
94877.6
94761.5
94123.4
92895.6
91128.7
89007.4
86794.5
84752.7
83079.2
81909.2
81311.1
93914.1
94082.1
94370.2
94679.3
94867
94754.5
94118.8
92891.9
91121.2
88993
86777.3
84732.6
83061.7
81895.1
81298.6
93896.7
94064.1
94351.9
94662.6
94853.3
94747
94115.1
92888.2
91112.7
88976.6
86754.7
84709
83041.5
81877.8
81283
93876.5
94043.5
94331
94642.7
94837.6
94739.2
94111.7
92885.5
91105.1
88960.7
86731.4
84684.4
83019.5
81859
81265.9
93855.7
94022.2
94309.3
94621.9
94819.2
94726.8
94101.8
92876.8
91092.7
88942.6
86707.6
84659.7
82997.2
81839.3
81247.6
93834.8
94000.9
94287.7
94600.6
94799.2
94710.3
94087.3
92862.3
91075.6
88921.5
86683.9
84636.1
82975.4
81819.2
81228.6
93814.4
93980.3
94266.9
94579.9
94779.1
94691.8
94069.6
92844.4
91056.2
88900.6
86662
84614.4
82954.5
81799.3
81209.2
93793.8
94004.8
94385.9
94847.8
95233.4
95352.3
94874.8
93603.7
91582.8
89102.4
86573.2
84328.3
82557.3
81347.4
80735.7
93780
93991.5
94373.3
94835.8
95221.4
95339.4
94860
93588.9
91569.7
89091.7
86563.3
84317.1
82544.2
81332.9
80720.5
93771.4
93983.9
94367.4
94831
95216
95330.7
94847.5
93577.1
91561.5
89089.4
86563.4
84314.4
82537.4
81323.2
80709.4
93767.2
93981.1
94366.9
94831.8
95214.4
95321.4
94831.7
93557.9
91550.4
89090
86571
84319.1
82536.2
81317.5
80701.7
93765.8
93981.5
94370.2
94836.1
95215.6
95308.7
94813.3
93539.3
91527.5
89091.7
86584.6
84329.5
82539
81314.9
80696.5
93765.5
93983.4
94375.1
94842.8
95219.6
95305.6
94800.2
93526.9
91525.9
89097
86599.4
84343.2
82544.5
81313.8
80692.6
93763.5
93982.9
94377.5
94846.5
95217.9
95308.1
94796.6
93522.5
91525.8
89113.3
86634.5
84362.7
82549.4
81312.7
80688.8
93757.7
93977.8
94373.5
94844.4
95215.6
95303.5
94784.5
93460.2
91507.9
89107.8
86634.4
84362.3
82546.4
81308.1
80683
93747.5
93967.5
94363.4
94833.9
95207.2
95300.4
94792.7
93516
91519.6
89103
86620.5
84349.3
82536.3
81298.9
80674.4
93732.7
93951.7
94345.9
94816.6
95195.9
95287.2
94783.3
93510.5
91509.8
89080
86582.6
84321.2
82518.1
81285.1
80662.7
93714.5
93932.1
94324.2
94794.3
95177.8
95277.2
94784
93509.4
91496.3
89060.5
86550.1
84290.8
82496
81268.7
80648.6
93694
93910.3
94300.5
94770.8
95159.1
95278.1
94789.9
93517.3
91508.5
89042.1
86517.8
84260.7
82472.9
81250.5
80632.7
93672.7
93887.9
94276.6
94746.4
95137.8
95264.4
94784.1
93515
91496.3
89019.5
86487.2
84232.3
82449.9
81231.5
80615.4
93651.5
93866
94253.5
94722.7
95115.2
95246.3
94769
93498.6
91476.8
88993.9
86458.8
84206.3
82427.6
81211.9
80597.1
93631
93845.1
94232.1
94701
95093.8
95226.8
94751.7
93481.1
91456.8
88971.1
86435.1
84183.6
82406.7
81192.2
80578
93326.7
93646.3
94254.9
95080.8
95954.3
96627.4
96588.7
95202.9
92551.5
89206.7
85948.9
83240.9
81216
79880.7
79219.3
93313.1
93633.6
94244
95071.8
95946
96618.3
96576.1
95191.5
92544
89203
85944.6
83232.2
81203.3
79865.8
79203.5
93305.3
93627.8
94242
95073.9
95949.2
96618.2
96561.9
95182.9
92538
89213
85955.7
83234.5
81197.5
79855.5
79191.2
93302.1
93627.6
94247.9
95086.4
95962.7
96613.4
96536
95170.1
92516.4
89231.1
85989.3
83250.7
81198.2
79848.8
79181.7
93302.4
93631.2
94259.1
95103.9
95973.8
96594.8
96457.4
95077.4
92449.2
89256.9
86026.1
83273.3
81204
79844.9
79174.3
93304.7
93639.5
94275.9
95125.4
95995.3
96587.5
96432.9
95067
92455
89288.9
86085.4
83305.8
81212.9
79843.3
79168.4
93303.9
93641.4
94283.4
95147
96001.3
96602.8
96427.7
95060.2
92457.1
89310.9
86217.5
83344.3
81225.2
79842.8
79163.5
93299.3
93638.6
94282.9
95150.3
96006.9
96617.8
96452.9
95000.7
92443.6
89307.8
86215.7
83347.2
81224.1
79839.2
79158.1
93288.9
93627.3
94271.3
95136.4
95992
96598.6
96425.5
95058.5
92454
89305.1
86205.6
83334.4
81214.7
79830.9
79150.8
93273.5
93609.4
94249.5
95104.2
95977.8
96576.7
96428.5
95065.8
92449.6
89278.1
86075.4
83289
81191.6
79818.5
79141.8
93254.2
93586.2
94219.2
95070.7
95945.4
96576.3
96441.7
95061.4
92433.5
89240.4
86003.4
83243.9
81168.3
79804.4
79131.3
93232.8
93561.6
94188.3
95034.9
95919
96590.1
96511.8
95146.4
92490.4
89198.7
85948.8
83203.3
81143.9
79788.9
79118.8
93211
93537.3
94159.2
95000.9
95884.9
96573.3
96522
95143.1
92494.9
89162.5
85895.8
83165.4
81120.3
79771.8
79104.1
93189.6
93514.2
94133
94971.2
95854.7
96548.7
96510.7
95126
92471.8
89123.7
85855.8
83134.9
81097.8
79753.5
79087.5
93168.9
93492.9
94110.2
94947
95830.2
96526.3
96492.3
95106.2
92448.6
89095.8
85827.9
83110.6
81076.8
79734.5
79069.3
92446
92924
93874.9
95279.1
97024.4
98784.8
99920.7
98338.7
94281.7
89125.3
84623.4
81256.7
78919.3
77448
76739.6
92432.4
92911.9
93866
95274.7
97023.1
98782.8
99907.9
98334.4
94283.8
89137
84629
81250.1
78906
77432
76722.5
92424.5
92907.1
93868.3
95287.7
97044
98800.2
99900.7
98342.1
94298.7
89172.5
84649.5
81253.5
78897.9
77418.9
76707.5
92421.6
92909.8
93883.8
95324.3
97086.9
98832.2
99769.2
98366.8
94260.2
89305.7
84744.1
81279.6
78896
77407.8
76693.5
92422
92916.4
93906.5
95366.2
97149.1
98801.4
98930.6
97969.3
94902
89414
84823.1
81316.7
78896.9
77397.4
76680.1
92425.4
92930.1
93945.6
95449.5
97225.1
98008.9
98839
97950
94947.2
90615.2
85001.7
81376.3
78906
77388.2
76667.8
92425.1
92936.4
93964.2
95490.2
96588.6
98051.7
98816.3
97921.5
94929.8
90639.2
86223.1
81414.1
78913.4
77383.7
76658.4
92420.9
92937.5
93973.9
95504.3
96584.3
98076.8
98854
97831.8
94922.7
90647
86200.9
81418.3
78920.3
77382.5
76651.2
92411.7
92925
93957.3
95486.7
96576.6
98065.1
98826.5
97910.8
94931
90643.7
86207.3
81410.1
78906.8
77374.3
76647.6
92396.7
92903.1
93923
95434.2
97221.3
98011
98820.3
97930.2
94931.8
90632.5
84995.1
81366.5
78891.2
77368.2
76645
92377.7
92876.5
93874.3
95345.4
97137.7
98805.3
98926.4
97971.4
94940.4
89429.8
84827.8
81303
78871.6
77364
76642.6
92357
92849.6
93833
95286.5
97065.2
98838.4
99776.9
98376.9
94263.3
89296.1
84720
81248.4
78854.1
77356.8
76637.6
92336
92824.3
93796.9
95232.9
97005.7
98782.3
99908.4
98344
94301.1
89157.2
84617.2
81204.3
78834.6
77345
76628.1
92315.2
92800.7
93767.2
95193.5
96959.5
98743.1
99888.7
98308.9
94244.6
89082.7
84561.2
81172.2
78815.1
77330.1
76614.8
92295
92779.3
93743.2
95165.9
96929.4
98715.2
99874.1
98286
94219
89047.3
84528.2
81147.3
78795.5
77312.7
76598.1
90952.9
91603.5
92948.6
95076.7
98075.4
101917
105883
103716
96930.8
88179.2
81909.5
77967
75460.2
73965.1
73272.5
90937.7
91590.2
92939.8
95076.2
98083.5
101927
105880
103719
96973.9
88227.6
81933.2
77960.8
75444.3
73946.6
73253.3
90926.7
91582.9
92942.3
95097.6
98133.9
101985
105909
103739
97015.2
88269.6
81940.1
77948.9
75425.8
73927.1
73233.2
90920.1
91585.1
92962.7
95175.3
98310.7
102145
103637
103824
98524.5
88793.9
82147.2
77982.6
75410.2
73905.7
73211
90913.8
91583.5
92993.4
95257.4
98450.5
100652
103653
103765
98596.7
90906.8
82291.8
77991.9
75387.5
73877.6
73185.3
90914.2
91606.1
93064.5
95484.9
97601.8
100842
103707
103657
98562.6
91113.4
84435.2
78078.2
75356
73853.1
73159.4
90906.2
91596.8
93055.5
94890.2
97658.9
100960
102762
102935
98814.6
92062.5
84629.5
79890.5
75297
73817.3
73135.9
90904.6
91604.8
93131
94894.6
97706.1
100997
102799
102922
98848.3
92115.1
84715
79949.5
75398.6
73807.6
73129.9
90894.5
91588.6
93058
94880.2
97694.1
100990
102780
102938
98831.3
92115.6
84699.6
79938.9
75295.7
73810.5
73126.8
90886.7
91579.3
93043.6
95476.9
97603.8
100893
102816
102958
98830.2
91184.5
84523.5
78082.5
75349
73837.2
73139.4
90873.4
91551
92969.7
95250.2
98464
100719
103686
103692
98567.5
91065.3
82311
77998.5
75373.3
73850.4
73152
90859.2
91529.5
92921.1
95155.1
98316.3
102179
103665
103863
98652.9
88815.3
82154
77973.1
75382.4
73863.2
73160.5
90843.4
91507.8
92882.9
95063.9
98131.3
102005
105985
103805
97064.5
88292.6
81948.5
77928
75378.1
73861.7
73159.3
90826.1
91486.9
92853.9
95017.2
98056.6
101929
105946
103752
96973.5
88202
81891
77907.9
75369.1
73853.9
73151.4
90807.7
91467.2
92830.7
94987.6
98020
101891
105921
103720
96926.7
88147.2
81853.6
77886.7
75353.4
73839.5
73137.2
88594.9
89369.7
91034
93852.9
98280.2
105306
111208
117343
104773
84230.8
76632.8
72835
70572.2
69337.9
68802.3
88576.1
89352.8
91021.3
93850.5
98297.9
105326
111208
117344
104793
84264.6
76645.5
72819.6
70551.1
69316.5
68781.1
88556.9
89335
91011
93852.6
98336.2
105401
111237
117348
104801
84219.7
76574.3
72754.1
70510.7
69286.8
68754.9
88539.5
89329.8
91024.3
93922.9
98737.7
103326
111430
117444
104670
88475.9
76703.8
72654.9
70458.1
69250.5
68722.4
88514.9
89301.2
91008.9
94014.9
97572.2
103623
111739
114954
105855
89191
79877.9
72539.2
70329.7
69184.3
68679
88501.8
89288.4
91077.4
93645
97732.1
102764
109971
113912
105903
91385.7
80037.2
74911.9
70207.8
69103
68631.4
88476.5
89252.7
91076.8
93704
97902.2
102808
109082
113876
106320
92310.1
81715.4
74951.2
70098
69023.4
68587.1
88463.5
89227.4
91115.4
93776.9
97287.8
102343
109119
113868
106295
92321.4
81704.1
74961.1
72039
68970.8
68571.1
88465.3
89243.2
91073.5
93740.6
97283
102820
109130
113882
106310
92336.6
81714.3
74931.6
70099.8
69018.8
68579
88474.3
89264.3
91064.5
93636
97869.3
102834
109097
113927
106368
92360.6
81769.1
74970.2
70205.4
69087.9
68611.5
88475.4
89270.3
90990.8
94014.1
97611
103791
109938
114965
105977
91338.7
80067.9
72567.6
70323.7
69159.4
68646.7
88479.4
89276
90988.7
93921.1
98781.1
103444
111603
117604
104777
88695.1
76756.7
72673.7
70444.9
69216.5
68674.5
88475.6
89265.5
90962
93837
98377
105503
111408
117494
104838
84286.5
76640
72763.9
70475.7
69225.2
68681.3
88466.6
89254.1
90945.3
93812.6
98319.9
105418
111347
117491
104864
84300.4
76658.3
72796.3
70491.5
69229.8
68680.3
88452.1
89238.6
90927.1
93786.3
98276.4
105374
111320
117476
104832
84259.4
76633.9
72788.2
70480.7
69218.1
68668.1
85143.8
85898.8
87568.8
90561.2
95527.4
102365
118662
149123
110403
77570
66806.8
65079.2
64037
63596
63431.2
85119.8
85875.4
87546.5
90538.8
95517.7
102355
118629
149088
110517
77516.8
66763
65039.3
64010.4
63574.2
63410.7
85086.9
85837.9
87501.8
90478.7
95433.9
102360
118581
149067
110735
77508.8
66603.5
64931.7
63952.5
63535.9
63382.5
85047.8
85796.6
87459.9
90286.9
94911.4
102804
118675
148974
110124
77508.2
70066.5
64610.4
63860.6
63481.5
63345
84987.5
85713.9
87284.4
90410.7
94976.8
101999
115953
149011
110904
81239.2
69738.1
66817.9
63601.3
63387.4
63289.5
84930
85584.2
87802.4
90489.2
94774.9
102017
114648
144108
115374
83155.4
71924.6
66649.7
65327
63244.7
63227.9
84891.1
85540.2
87808.2
90503.9
94823.7
101654
114605
144073
115331
83141.3
73123.4
68195.8
65256.2
63200.1
63189.7
84855.9
85507.1
87873.1
90536.3
94833.9
101654
114600
144078
115326
83137.9
73105.9
68170.8
65257.5
63199.4
63152.9
84879.2
85529.8
87817.4
90551.7
94857.5
101667
114621
144105
115327
83145.2
73121
68185.8
65225.9
63195.3
63180.8
84899.3
85556.4
87806.7
90472.9
94846.9
101689
114675
144172
115387
83192.2
73159
68223.9
65293.7
63223.1
63202.8
84944.3
85679.9
87267.6
90414.7
95026.9
102124
114780
144303
115530
83276.4
72129.7
66774
63599.8
63362.6
63253
84984.3
85743.2
87425.6
90296.2
94862.9
102856
116202
149298
110395
81638.3
70071
64654.5
63852.7
63441.2
63289.9
85001.3
85765.2
87457.3
90473.7
95504.8
102537
118941
149441
110477
77662.6
66751.8
64974
63928.5
63474.3
63302.3
85005.7
85774.5
87473.6
90513.9
95575.9
102513
118967
149517
110513
77675.5
66849.8
65043.7
63957.6
63483.7
63301.3
84996.5
85765.7
87465.8
90506.7
95558.7
102474
118971
149517
110504
77634.6
66863.8
65060.2
63954.5
63472.9
63288.1
80521
81012
82082.4
83983.3
86953.4
93538
100445
96257.7
24047.3
48936.6
52554.5
54801.2
56223
57125.8
57533.2
80493.2
80982.7
82050.9
83943.8
86924.6
93495.4
100401
96082.4
24266.5
48755.8
52444.9
54757.9
56206.6
57112.5
57520.4
80450
80930.1
81992.9
83895.5
86843.7
93420.6
100333
95960.2
23184
48597.7
52336.4
54744.8
56185.6
57093.2
57507.5
80392
80845.4
81890.7
83652.4
88182.5
93091.6
100181
96075.5
23884.5
48823.5
53899.5
54834.6
56180.3
57070.2
57496.1
80302.9
80727.2
81695
84836.6
87987.7
93613.2
101160
96229.7
23580
52234.5
55531.2
56241.5
56188.4
57056.3
57477.6
80196.2
80597.4
82895.3
84754.3
88510.7
93918.2
101062
96185.4
24106.6
52659
56536.5
56338.5
57449.5
57089.7
57458.6
80158.7
80550.6
82898.8
84699.5
88789.4
93891.1
101023
96189.8
23917.1
52738.4
56678
57356.5
57418.3
57127.8
57468.9
80130.3
80512.1
82866.3
85344.6
88799.4
93885.4
101019
96159.6
23634
52738.1
56722.4
57914.6
57458.1
57151.7
57454.4
80143
80537.4
82861
85333.3
88803
93898.3
101044
96224.5
23404.9
52716.6
56727.9
57916.5
57415.3
57116.1
57454.2
80159
80566.5
82884.4
84697.5
88794.9
93931.9
101104
96336.5
23580.5
52775.6
56713
57367.8
57407.4
57065.6
57425.5
80249.6
80679.2
81661.1
84784.8
88543.4
93987
101211
96467.6
25176.2
52849.9
56610.8
56270.8
56184.8
57020.3
57427.5
80316.8
80782.7
81857.1
83651.9
88153
92960.9
100279
96749.6
23533.6
50942.6
54026.6
54900.1
56167.8
57017.3
57423.9
80351.3
80844.2
81935.7
83889.9
86904.3
93399.9
100569
96816.3
23801.4
49109.1
52578
54802.1
56158
57015.5
57407
80365
80868.8
81967.7
83909
86969.7
93628.4
100719
96901.7
23444
49104.4
52632.7
54787.4
56147.1
57002.2
57387.2
80359.1
80864.8
81967.2
83919.6
86971.8
93655.2
100753
96936.8
23387.9
49093.8
52680.2
54794.4
56130.3
56982
57365.3
74965.3
74965.6
74943.5
74909.6
75134.6
79354.5
82882.4
95507.4
3205.33
28267.8
38923.5
44801
48618.7
50849
51846.9
74940
74939
74917.9
74885
75129.7
79320.3
82845.3
95257.7
2773.26
27709.4
38778.5
44780.7
48622.5
50851.4
51848.2
74904.8
74898.9
74880.3
74890
75132.7
79252.1
82782.2
95148.9
2254.9
26643.4
38754.6
44836.5
48657.3
50877.2
51868.3
74861.4
74832.2
74827.4
74998.7
77882.7
79247.6
82651.9
95157.4
4724.9
28248.2
39504.4
45167.4
48780.8
50942
51915.6
74799
74753.9
74819.3
76996.8
77983.3
81069.8
83776
95295.6
2429.37
28829.9
40414.5
46234
49013.9
51059.1
51984.7
74722
74741.1
76459.2
76976.3
79259
81898.3
83739.4
95088.2
5571.29
29322.5
40970.9
46395
49889.8
51225.8
52056.7
74705.1
74725.2
76440.3
76975.7
79924.5
81854.6
83717.2
95087.3
2694.8
29411.9
41128.1
46893.9
49943.9
51302.3
52109
74682.5
74697.2
76401.4
78003.7
79900.1
81842.1
83717.1
95044.8
2760.38
29426.2
41187.9
47170.9
49979.7
51329.4
52107.6
74680.4
74702.9
76390.9
77985.3
79902.1
81850.9
83733
95095.5
2378.95
29422.6
41189
47168.8
49953.8
51280.9
52084.3
74675
74700.1
76401
76976.6
79916.6
81883.4
83768.6
95144.3
2335.19
29440.3
41145.5
46899.7
49897.6
51190.2
52011.9
74727.8
74688.6
74771.5
76947.6
79294.5
81958.3
83831
95195.1
5868.14
29422.9
41018.4
46307.2
48995.4
51003.8
51911.4
74764.9
74745.8
74762.5
74965.2
77972.9
79468.5
83045.3
95488.4
2309.23
29040.2
39974
45242.9
48756.3
50865.9
51814.9
74781.6
74786.8
74791
74838.9
75130.5
79309.5
82895.7
95431.6
3036.68
28723.7
39128.3
44913.1
48609.2
50766.3
51732
74785.4
74797
74803.2
74811.9
75106.2
79350
82987.9
95470
2583.27
28576.9
39024.3
44797.2
48531.4
50701.5
51673.7
74776.1
74789.8
74796.1
74805.5
75079.5
79380.3
83019.1
95472.1
2301.07
28476.3
39037.2
44754
48484.1
50660.7
51634.6
69124.5
68580.5
67465.1
65770.2
65745.2
65447
68341.5
2300.19
20347.1
31172.2
38112.1
42983.8
45943.2
47324.5
69107.1
68563.2
67452.3
65768.1
65728.9
65425.9
68318.4
2314.22
19920.6
31010.5
38100.7
42993.3
45955.8
47336.5
69093
68552.2
67438.6
65761.4
65783.8
65437.6
68279.2
2273.01
18649.1
30959.7
38152.6
43051.4
46011.6
47381
69091.5
68548.6
67432.5
65920.9
66233.9
65422.8
68164.1
2309.85
20021
30936
38579
43234.1
46134
47468.8
69099.8
68562.5
67616.8
68038.2
66859.1
67460.7
68824.2
2296.04
19020.1
31035.6
38771
43487.1
46309.5
47592.6
69100.1
68699.2
69241.2
68313
68284
68444.9
68827.4
3043.41
19253.6
31120.6
39008.7
43807
46441.6
47715.7
69114.8
68735.2
69192.4
68430.2
69102.9
68521.6
68860.7
2310.93
19352.6
31294.5
39095
43921.4
46504.7
47771.6
69098.2
68725.2
69177.6
69358.5
69197
68557.7
68886.8
2299.28
19391.4
31376.6
39158.1
43928.2
46524.8
47767.7
69080.9
68702.6
69152
69353.3
69192.4
68557.5
68893.6
2295.26
19393.4
31367.6
39144.6
43900.1
46468.7
47733.5
69035.7
68638
69138.8
68392.2
69086.1
68521.9
68882.5
2297.29
19344.7
31274.6
39050.8
43843.2
46377.8
47650.6
69003.4
68471.8
67541
68012.9
68217.8
68444.2
68864
2295.47
19230.7
31120.6
38871
43413.3
46217.6
47480.9
68963.6
68428.1
67326.6
65839.7
66367.2
65568.6
68041.2
2301.99
19700.6
31360.8
38585.8
43162
46012
47324.2
68933.1
68401
67304.4
65652.4
65815.2
65423.1
68281.3
2300.09
20540
31429.2
38210.1
42958.4
45848.6
47192.4
68913.1
68379.3
67289.2
65639.1
65704.3
65405.5
68346.9
2294.66
20558.5
31189.4
38055
42839.3
45743.7
47102.2
68894.3
68361.2
67268.3
65611.8
65605.9
65379.8
68358.5
2328.26
20567.2
31161.2
37973.2
42769.6
45683.9
47046.7
63844
62772.8
60551.7
56816.5
55165.8
49289.7
46383.3
2270.9
2300.48
18042.7
27983.4
35038.9
40054.1
43187.2
44703.1
63831.1
62760
60540.2
56807.6
55146.8
49264
46369.5
2269.78
2278.06
19174.3
28102.7
35065.5
40068
43201.3
44715.5
63826.8
62760.3
60530
56759.3
55143.3
49229.4
46344.3
2746.61
2263.96
16878.2
27922.7
35085.9
40108.9
43253.8
44759.8
63845.7
62787.2
60502.2
56816.4
55184.6
49195.8
46343.8
2378.92
2298.47
16248.8
26642.1
35350.9
40268.7
43373.9
44845.2
63897.2
62838.1
60610
59661.5
55317.8
51909.4
48159.9
2422.83
2369.68
14948
26147.7
34627.7
40443.5
43534.3
44960.1
63945.8
62969.8
62523.4
59762.1
57190.8
53234.8
48350.3
3160.87
2278.23
15095.7
26002
34816
40073.9
43629.6
45076.3
63970.8
63003.4
62549.2
59792.8
58090.5
53373.8
48470.5
2459.96
2319.12
15314.2
26246.2
34492.9
40197.9
43668.4
45117.6
63954.7
63003.4
62542.8
61025.6
58182.6
53469.7
48549.3
6298.3
2358.58
15659.1
26426.7
34356.5
40230.1
43675.8
45108
63925.8
62959.2
62513.2
61019.6
58167.7
53459.4
48552.6
3101.5
2300.58
15584.9
26387
34326.4
40188.3
43614.2
45062.7
63857.8
62886
62477.3
59734
58068.4
53348.5
48478.9
2901.45
2304.55
15270.1
26162.9
34403.3
40082.3
43527.7
44979.4
63768.1
62713.1
60496.7
59605.5
57102.5
53190.9
48360.3
3275.79
2301.21
15051.1
25926.3
34620.9
40300.7
43386.1
44793.6
63676.9
62624.1
60352.3
56693.8
55079.3
49239
46448.6
2594.12
2304.67
15553.6
26845
35218.6
40099
43175.9
44637.4
63619.7
62560.3
60345.3
56604.9
54997.1
49148.8
46327.7
2322.81
2294.54
15983.2
28049.3
34967.7
39906.5
43007.2
44497.6
63586.4
62523.2
60320.5
56621.7
55006.2
49167.5
46332.4
2807.18
2295.59
17902.2
27692.4
34787.9
39772.1
42890.9
44397.6
63561.1
62498.6
60296
56596.3
54977.5
49172.6
46329.8
3164.26
2289.02
17934.5
27698.4
34709.1
39699.3
42823.9
44335.6
59906.2
58346.4
55079.7
49462.5
40322.1
33057.4
13430.8
2266.75
2301.68
18430.4
27587.4
34581.5
39595.7
42705.2
44234.7
59888.8
58328.3
55055.8
49440.4
40291.9
33008.9
13362.1
2264.14
2297.03
19551.3
27547
34623.1
39612
42714.1
44240.1
59875.1
58318.1
55039.1
49395.6
40214.2
32759.3
13262
2263.73
2288.85
16696.7
27665.5
34609.7
39621.2
42748.9
44267.2
59878.3
58342.2
54998.2
49445
44830.9
32649.7
13191.5
2282.16
2301.87
15835.7
25282.5
34741.7
39723.3
42831.7
44325.7
59918.3
58394.3
55070.5
52406.8
45037.4
36454.2
19313.4
2302.97
2296.91
13601.8
24385.2
33172.6
39821.8
42963.2
44403.2
59967
58433
57074
52525.7
47379.4
38419
20419.1
2272.34
2296.58
13704.8
24125.9
33368.5
38752.7
43029.9
44500.6
59974.7
58437.8
57175.5
52589.8
48523.5
38749.4
20687.8
2278.56
2300.2
14321.6
24587.5
32775.6
38870
43056.5
44525
59951.3
58435.5
57196.6
54063.8
48632.5
39085.9
21083.2
2487.68
5918.79
15551.2
25048.5
32538.1
38916.9
43052.2
44509.6
59914.1
58374.5
57157
54035.8
48600.9
39043.6
21011
2330.55
2340.02
15240.4
24929.8
32480.4
38861.3
42981.5
44449.1
59849.5
58315.9
57094.7
52465.4
48448.8
38675.5
20665.3
2268.52
2291.57
14057.9
24373.5
32618
38727.4
42884.7
44353.7
59748.1
58225.2
54901.5
52441.9
47228.9
38325.3
20401.6
2262.46
2295.44
13540.5
23929.3
33084.9
39596.7
42750.9
44183.6
59659.4
58125.9
54789.1
49252.4
44811
32830.2
14758.8
2302.85
2277.66
14122.2
25230.8
34459.7
39428.7
42538.8
44042.6
59611.5
58058.7
54789.9
49167.9
40031
32651.2
13180.8
2279.44
2300.18
15777
27233.9
34294.4
39261.7
42393.2
43911.8
59583
58027.5
54766.4
49175.7
40081.8
32783.6
13225
2258.3
2298.49
18087.1
26760.1
34109.8
39118.3
42280
43815.5
59559.8
58005.8
54751.7
49161
40081.4
32880.6
13319.4
2260.7
2299.38
18089.8
26929
34035.2
39048.2
42213.7
43756.1
58016.2
56177.5
52326.6
45927.8
35775.6
25568.8
2312.41
2248.08
2301.15
18778.5
29150.9
36344.2
41319.9
44374.7
45847.9
57986.6
56148.1
52285.3
45888.2
35810.2
25560.3
2311.74
2241.02
2299.41
18878.5
28995.1
36350.1
41314.1
44372.6
45843.3
57951.4
56114.1
52236.3
45763.8
35946.1
25995.8
2313.21
2276.48
2297.39
15681.5
29271.8
36356.9
41321.4
44383.3
45850.4
57925.2
56124.1
52230.6
45863.3
39290.6
25879.4
2555.66
2289.87
2300.94
15821.6
26174.2
36443.8
41377.2
44420.1
45880.7
57935
56175.5
52361.6
48166.8
39462.9
28733.6
12463.6
2295.58
2294.44
13801.2
24989.5
34196
41456.5
44513.3
45925.1
57963.6
56206
53806.9
48339.1
41450.4
30293
12823
2280.25
2283.86
14104.4
24700.1
34418.1
39779.2
44574.8
45997.5
57948
56196.6
53903
48509.3
42585.6
31026.1
13536.5
2299.93
2299.73
15692.4
25512
33603.1
39887.2
44595.9
46004
57915.8
56178.2
53939.5
49727.7
42860
32146.2
18854.9
2261.17
33158.7
20998.1
26462.8
33304.9
39941.1
44580.1
45982.1
57868.5
56114.2
53889
49672.1
42800.6
32057.1
17394.8
2294.79
5219.09
18923.1
26192.7
33213.4
39873.8
44499.3
45908.4
57809.8
56045.3
53769.8
48305.4
42438.7
30858.8
13413.5
2277.19
2303.37
14847.2
25105.3
33370.3
39706.6
44384.8
45807.3
57714.6
55949.9
52121.1
48137.7
41190.2
30105.2
12705.4
2275.68
2285.05
13758.7
24365.5
34037.5
41150.9
44224.2
45646.1
57646.9
55841.8
51942.1
45574.8
39132.6
26192.1
11546.9
2290.18
2301.08
14351.4
25980.9
36018.4
40966.8
44037.5
45510.7
57621.6
55782.1
51902.5
45437.2
35654.6
25866.9
2318.18
2280.01
2303.47
15524.6
28657.2
35846.7
40809.7
43907
45389.5
57609.9
55769.9
51907.7
45513.8
35499.6
25233.5
2310.45
2271.57
2297.98
17152.3
27913.7
35583.6
40651.3
43794
45297.8
57596.6
55757.2
51908.5
45512.8
35438.5
25205.3
2310.37
2257.9
2299.33
17881.1
28151.9
35572
40614
43739.3
45244.5
58671.1
56908.8
53189.6
47194.6
36866.2
24095.7
2297.02
2290.85
2301.83
23247.1
33487.1
40549.7
45258.5
48046.7
49367.7
58623.2
56859.1
53124.4
47090.9
36847
24019.9
2296.74
2283.12
2301.32
22973.5
33323.2
40502.1
45219.2
48025.6
49349.4
58555.5
56782.7
53024.8
46784.6
37732.1
24680.3
2468.5
2270.35
2300.39
17998.8
33540.7
40567.6
45217.8
48020
49337.9
58490.6
56734.2
52957.3
46713.4
39065.4
25140.4
4694.95
2284.57
2296.4
18158.3
29530.2
40627
45234
48019.6
49342.6
58456.5
56730.6
52987.4
47864.5
38896.3
27242
11321.7
2293.32
2299.18
15609.1
27981
37706.8
45307.3
48086.7
49358.4
58449
56729.2
53576.7
47879.1
40197.3
28470.3
11550.2
2298.13
2295.57
16185.3
27588.2
37904.4
43073.2
48157.1
49414.2
58403.6
56690
53616.6
47998.1
41102.2
29636.1
13134.4
2291.23
2302.59
17975.4
28545.9
36797.1
43147.9
48165.9
49401.9
58358.2
56646.3
53621.1
48779.2
41452.5
31555.5
21972
13396
2267.57
20841.4
29539.9
36366.8
43182.8
48136.8
49372.2
58301.6
56579.3
53563.3
48695.6
41324.6
31296.1
23466.1
2299.3
2340.42
20342.9
29287.2
36262.4
43113.3
48051.2
49290.7
58256.1
56523.1
53448.9
47726.2
40808.4
29140.1
12695.1
2299.2
2299.94
17140.7
28068.3
36528.4
42950.6
47927.4
49188
58182.2
56439.8
52660
47626.9
39797.3
28074.8
11293.1
2300.46
2299.63
15719.6
27157.5
37481.2
44937.6
47740.5
49027.5
58148.2
56377.9
52574
46300.7
38629.7
25354.8
10538.3
2292.79
2315.52
16294.4
29257.4
40077.2
44726.8
47554.3
48897.3
58154.4
56369.2
52588.9
46328.6
37277.9
24738.7
4273.58
2268.63
2303.99
17728.5
32815.8
39891
44583.3
47443.6
48786.6
58170
56393.2
52637.9
46573.2
36337.6
23603.6
2296.73
2273.33
2299.95
20928
32001
39559.8
44404.8
47327.4
48700.1
58172.5
56398.1
52660.3
46635.3
36325.3
23647.8
2296.96
2287.77
2300.83
21872.2
32279.8
39601.4
44401.3
47287.9
48655.8
61868.3
60497.2
57526.3
52816.8
44050.1
31378.3
2304.19
2302.67
2493.26
33871.5
41533.8
47754.8
51486.5
53597.3
54593.7
61796.2
60413.4
57412.2
52579
43737.1
30899.4
2303.51
2300.89
2342.84
33183.2
41288.6
47613.2
51399.2
53549.6
54556.5
61683.9
60273.6
57249.6
52019.6
44525.5
30142.1
7629.01
2277.34
2301.99
24582.6
41674.3
47610.9
51346.4
53517.9
54521.4
61560
60125.3
57015.3
51747.8
43540.1
29602.9
8669.67
2292.5
2298.65
24165.1
36403.4
47572.5
51271.4
53473.7
54494.1
61458.6
60019.6
56874.7
51483.9
42964.8
30538.7
12890
2287.93
2299.39
20041.4
34105.9
43971.2
51347.2
53499.9
54480.7
61389.7
59954.8
56485.9
51180.3
43337.6
31312.4
13376.4
2289.24
2300.61
21032.9
33376.7
44026.5
48582.6
53585.1
54512.4
61301.1
59859.9
56352.8
51099.5
43690.3
32317.1
16942.5
2320.02
2321.77
24416
34279.6
42474.7
48571.1
53570.6
54480
61236
59784.5
56292
51264.9
43734
33083
16832.4
8402.27
2173.3
30163.5
35144.8
41797.8
48577.1
53531.3
54442
61179
59720.2
56231.3
51159.1
43510.2
32389.4
16267.7
14454.8
23319.7
28206
34895.2
41710.1
48511.5
53447.9
54359.7
61161.5
59703.2
56172.9
50807.7
43191.6
31055.3
13532.8
2292.26
2299.37
22502.9
33780.7
42244.5
48388.9
53332.3
54266.2
61136.1
59669.2
56459.7
50909.4
42774.6
30531.9
12725.8
2297.26
2300.66
20340
32929.3
43645.8
50929
53115.7
54108.9
61159.7
59698.4
56533.3
51184.7
42664.7
29190.6
11956.6
2291.15
2298.3
21035
35889.1
46917.2
50687
52945.5
53995.2
61217.2
59781.2
56703.4
51397.4
43818.4
29451.7
8266.36
2268.44
2306.98
23471.9
40660.4
46767.2
50609.1
52865
53905.8
61272.3
59862.4
56807.8
51884.6
42970.3
30001.8
2302.57
2299.06
2306.37
30511.8
39823.7
46477.7
50467.7
52767
53835
61296.7
59898.6
56875.9
52074.4
43244.7
30450.6
2303.25
2301.74
2367.47
31974
40168.2
46614.6
50508.2
52750.6
53806.2
67082.2
66347.5
64696.6
62335.1
57362.6
51459.7
29244.2
2337.33
45194.8
54767.6
54818.6
58180.5
59723.3
60664.3
61141.5
66985.1
66220.7
64511
61927.2
56563.7
49880.6
24629.4
2333.16
42635.5
53590.2
54376.7
57903.8
59579.5
60585.9
61082.3
66829.3
66013
64285.1
61102
57096.6
44073.9
21056.1
2349.96
2337.12
40400.2
54514.5
57528.9
59424.1
60505.6
61012.4
66644.2
65770.8
63865.4
60724.1
53159.8
41664.9
18304.2
2317.45
2303.31
37564.2
48046.8
57319.2
59222.4
60404.7
60938.5
66476.5
65574.4
63618.2
58691.8
52181.5
40278.2
19252
2292.06
2315.06
29926.5
44753.8
53218.9
59230.5
60369.6
60883.2
66356.8
65468.1
62072.7
58151
51181.1
39611
19332
2289.57
4594.43
30527
43156.3
53084.1
56194.4
60381.3
60880.7
66226.7
65323.6
61767.2
57844.2
50611.7
39483.8
24366.1
17988.7
18189.3
31676.9
43138.6
50908
56095.2
60329.6
60814.6
66143.9
65225.4
61641.8
57216.9
50170.4
38258.7
15841.1
2254.26
2265.18
28112.5
42838.5
49825.2
56091.6
60281.3
60766.6
66094.6
65173.1
61583.9
57114.5
49943.5
37650.8
15333.1
2281.56
23689.3
30090.1
42979.2
49805.3
56042.6
60203.4
60689.3
66107.9
65190
61602.2
57616.6
50060.6
38054.5
17970.5
8502
7638.91
31559.6
43193.1
50828.5
55957.4
60118.7
60625.4
66123.3
65183.5
63139.1
57841.4
50587.5
38660
18354.1
2297.97
2330.22
30633.8
43042
52813.6
58782.9
59965
60488.6
66205
65293.2
63301.4
60008.1
51853.2
40116.5
18347.7
2292.05
2307.85
31709.4
47112.9
56569.4
58586
59845.2
60419.7
66317.5
65461.8
63645.9
60305.7
56050.8
41865.5
18194.5
2356.16
5416.28
36850
53180.7
56512.7
58611.3
59809.8
60367
66412
65605.2
63802.7
61015.2
55282.6
47785
18244.2
2330.01
24206.6
48341.1
52067
56476.5
58566.6
59759
60328.7
66459.9
65682.8
63942.5
61377.5
56087.5
49488.5
24460.7
2333.92
39034.9
51808.3
53037.8
56832.6
58673.7
59775.7
60322.2
73430.3
73492.1
73622.6
74959.9
77266.7
87228.5
129180
126285
101435
79328.6
71685
70379.2
68945
68481.9
68333.1
73320.1
73335.5
73392.6
74465.6
76331.9
85837.4
126233
119143
99072.3
78601.5
71165.4
70020.9
68773.9
68381.2
68256.7
73142
73071.9
73090.4
73080.8
74945.7
71090.1
83913.7
75723.4
79249.3
68642.4
70348.1
69157.1
68526.2
68244.2
68151.2
72920.3
72776.4
72502.5
72428.8
68434.3
65693.4
58084
7127.35
41197.7
64433.2
65147.2
68615.3
68219
68082
68027.2
72712.3
72518
72113.9
69086.2
67046.3
59969.5
41363.7
2291.9
17220.7
52523.7
61283
65100.9
67996.9
67964.2
67916.9
72569.1
72304
69841
68378.5
64100.9
56720.5
38121.4
4754.38
16209.5
50159.7
58665.6
64721.2
65386.8
67809.1
67841
72417.3
72128.9
69511
67937.7
62482.1
54846.1
34310.7
4943.53
40400.4
48514.7
57745.3
62423.3
65244
67697.1
67738.4
72330.2
72030.8
69354.6
66347.5
61868.2
53124.4
28327.8
2472.48
2266.58
43699.9
56850.4
61049.3
65148.7
67629.5
67677
72288.6
71985.7
69303.3
66272.6
61715.5
52980.1
29826.8
2279.28
6711.05
46200.9
57201
61065.2
65109.3
67567.2
67603.7
72322.4
72031
69358.6
67752.3
62045.7
54193.3
34411.7
2218.49
57135.4
52117.4
58288.4
62410.5
65124.2
67549.2
67597
72357.1
72125.5
71631
68107.8
63515.2
55757.6
37331.8
13558.7
29886.3
52528.2
58814.7
64468.8
67547.9
67567.7
67532.3
72475
72288.9
71917.5
71660.4
66688.2