/*--------------------------------*- C++ -*----------------------------------*\
| =========                 |                                                 |
| \\      /  F ield         | OpenFOAM: The Open Source CFD Toolbox           |
|  \\    /   O peration     | Version:  v2012                                 |
|   \\  /    A nd           | Website:  www.openfoam.com                      |
|    \\/     M anipulation  |                                                 |
\*---------------------------------------------------------------------------*/
FoamFile
{
    version     2.0;
    format      ascii;
    class       volScalarField;
    location    "0.007";
    object      p_rgh;
}
// * * * * * * * * * * * * * * * * * * * * * * * * * * * * * * * * * * * * * //

dimensions      [1 -1 -2 0 0 0 0];


internalField   nonuniform List<scalar> 
449343
(
93842
94005.3
94287.2
94594.2
94787
94690.3
94064.8
92839
91053.2
88901.8
86668.6
84626.8
82972.1
81820.7
81232.7
93847.5
94011.2
94293.4
94600.6
94793.1
94695.3
94069
92843.1
91058.5
88908.5
86676.3
84634.1
82978.3
81826
81237.4
93858.2
94022.4
94305.4
94612.7
94804.2
94703.7
94075.5
92849.5
91067.3
88920.9
86691
84648.4
82990.5
81836.1
81246.4
93872.9
94037.9
94321.8
94629.1
94818.9
94713.4
94083
92856
91076.9
88936
86711
84668.5
83007.8
81850.4
81259
93890.3
94056.2
94341.2
94648.3
94835.5
94724.2
94090.3
92862.9
91088.3
88954
86735
84692.9
83028.7
81867.7
81274.2
93908.4
94075.3
94361.4
94668.1
94853.4
94737.3
94099.9
92872.6
91102.2
88975.2
86761.2
84719.5
83051.4
81886.3
81290.6
93925
94092.7
94379.9
94686.8
94870.1
94751.9
94112.2
92884.1
91117.9
88998.3
86787
84745.8
83073
81904.1
81306.5
93938.5
94106.6
94394.5
94702.1
94885
94766.9
94124.1
92894.9
91129.5
89015.1
86805.3
84763.8
83089.1
81918.6
81320.2
93947.9
94116.2
94404.3
94712.6
94897.3
94781.1
94143
92915.2
91148.3
89027
86814.1
84772.3
83098.8
81928.8
81330.7
93953.4
94121.3
94409.4
94718.5
94906.3
94793.7
94158
92931.2
91160.5
89032.3
86816.6
84771.8
83101
81934.3
81337.8
93955.5
94122.9
94410.8
94721.4
94912.2
94805.8
94174
92947
91171.6
89035.4
86813.6
84767.9
83100.3
81936.7
81341.8
93954.9
94121.9
94409.5
94721.1
94916.1
94817.7
94190.2
92963.9
91183.6
89039.2
86809.9
84762.8
83098
81937.5
81344.4
93953.8
94120.3
94407.4
94720
94917.3
94824.9
94199.9
92974.9
91190.8
89040.7
86805.7
84757.8
83095.3
81937.4
81345.7
93952.5
94118.6
94405.4
94718.3
94916.9
94828.1
94205
92980
91193.3
89039.3
86801.7
84753.8
83093.1
81936.9
81346.3
93951.7
94117.7
94404.3
94717.2
94916.4
94829.1
94207
92981.8
91193.6
89038
86799.3
84751.7
83091.8
81936.6
81346.5
93656.5
93867.5
94248.5
94710.4
95096
95215
94737.5
93466.3
91445.4
88965.1
86435.8
84191
82419.9
81210
80598.4
93662.3
93873.8
94255.6
94718.1
95103.6
95221.7
94742.3
93471.2
91452
88974
86445.6
84199.4
82426.5
81215.2
80602.8
93673.3
93885.8
94269.3
94732.9
95117.9
95232.6
94749.4
93479
91463.4
88991.3
86465.3
84216.3
82439.3
81225.1
80611.3
93688.7
93902.6
94288.4
94753.4
95135.9
95242.9
94753.2
93479.4
91471.9
89011.5
86492.5
84240.6
82457.7
81239
80623.2
93707
93922.7
94311.3
94777.2
95156.8
95249.8
94754.4
93480.5
91468.6
89032.9
86525.7
84270.7
82480.2
81256
80637.6
93726.3
93944.1
94335.9
94803.6
95180.4
95266.4
94761
93487.6
91486.6
89057.7
86560.2
84304
82505.2
81274.6
80653.4
93743.9
93963.2
94357.9
94826.9
95198.3
95288.5
94777
93502.9
91506.2
89093.7
86614.9
84343.1
82529.7
81293.1
80669.1
93757.7
93977.8
94373.5
94844.4
95215.6
95303.5
94784.5
93460.2
91507.9
89107.8
86634.4
84362.3
82546.4
81308.1
80683
93767.1
93987.1
94383
94853.5
95226.8
95320
94812.3
93535.6
91539.3
89122.7
86640.1
84369
82555.9
81318.5
80694
93771.9
93990.9
94385.1
94855.8
95235.1
95326.5
94822.6
93549.8
91549
89119.3
86621.8
84360.4
82557.3
81324.3
80701.9
93773.3
93990.9
94383.1
94853.2
95236.6
95336
94842.9
93568.3
91555.2
89119.4
86609
84349.6
82554.8
81327.5
80707.4
93772.5
93988.7
94379
94849.3
95237.6
95356.5
94868.4
93595.8
91587
89120.6
86596.3
84339.2
82551.4
81329
80711.2
93770.8
93986
94374.7
94844.5
95235.9
95362.5
94882.2
93613.1
91594.4
89117.6
86585.3
84330.4
82548
81329.6
80713.5
93769.3
93983.7
94371.2
94840.5
95232.9
95364
94886.7
93616.3
91594.5
89111.6
86576.6
84324
82545.4
81329.6
80714.8
93768.4
93982.5
94369.4
94838.3
95231.2
95364.2
94889
93618.4
91594.2
89108.4
86572.4
84320.9
82544
81329.5
80715.3
93189.3
93508.9
94117.5
94943.4
95816.9
96490.1
96451.4
95065.6
92414.2
89069.4
85811.6
83103.6
81078.6
79743.3
79081.9
93195.4
93515.9
94126.3
94954.1
95828.3
96500.6
96458.3
95073.8
92426.3
89085.3
85826.8
83114.5
81085.6
79748.1
79085.8
93207.2
93529.7
94143.9
94975.8
95851.1
96520.1
96463.8
95084.8
92439.9
89114.9
85857.6
83136.4
81099.4
79757.4
79093.1
93223.7
93549.1
94169.4
95008
95884.2
96534.9
96457.5
95091.6
92437.9
89152.6
85910.8
83172.2
81119.7
79770.3
79103.2
93243.5
93572.3
94200.2
95045.1
95914.9
96536
96398.6
95018.5
92390.3
89198.1
85967.3
83214.4
81145.1
79786
79115.4
93265.5
93600.3
94236.7
95086.2
95956.1
96548.3
96393.7
95027.8
92415.7
89249.7
86046.2
83266.6
81173.7
79804.1
79129.2
93284.3
93621.8
94263.8
95127.3
95981.7
96583.2
96408.1
95040.6
92437.5
89291.3
86197.9
83324.7
81205.6
79823.2
79143.9
93299.3
93638.6
94282.9
95150.3
96006.9
96617.8
96452.9
94995.8
92443.6
89307.8
86215.7
83347.2
81224.1
79839.2
79158.1
93308.6
93647
94290.9
95156
96011.6
96618.2
96445.1
95078.2
92473.6
89324.7
86225.3
83354.1
81234.3
79850.5
79170.4
93312.7
93648.6
94288.7
95143.4
96017
96616
96467.7
95105
92488.9
89317.3
86114.6
83328.2
81230.8
79857.8
79181
93313
93645.1
94278.1
95129.6
96004.3
96635.2
96500.5
95120.3
92492.4
89299.3
86062.3
83302.7
81227.1
79863.3
79190.1
93311.3
93640
94266.8
95113.3
95997.5
96668.6
96590.3
95224.9
92568.9
89277.1
86027.3
83281.8
81222.4
79867.4
79197.3
93309.1
93635.4
94257.3
95099
95983
96671.4
96620.1
95241.2
92593
89260.6
85993.9
83263.5
81218.4
79869.9
79202.2
93307.3
93632
94250.7
95088.9
95972.4
96666.4
96628.4
95243.7
92589.5
89241.4
85973.5
83252.6
81215.5
79871.3
79205.2
93306.3
93630.2
94247.6
95084.3
95967.5
96663.6
96629.7
95243.5
92585.9
89233.1
85965.2
83247.9
81214.2
79871.9
79206.6
92308.7
92786.7
93737.5
95141.7
96887
98647.5
99783.3
98201.4
94144.4
88988
84486.1
81119.4
78782
77310.7
76602.3
92314.6
92794.2
93748.3
95156.9
96905.4
98665.1
99790.2
98216.6
94166.1
89019.2
84511.3
81132.4
78788.3
77314.3
76604.8
92326.4
92809
93770.2
95189.6
96945.9
98702.1
99802.6
98244
94200.6
89074.4
84551.4
81155.4
78799.8
77320.8
76609.4
92343.1
92831.3
93805.3
95245.8
97008.5
98753.7
99690.7
98288.3
94181.7
89227.2
84665.6
81201.1
78817.5
77329.3
76615.1
92363.1
92857.6
93847.6
95307.3
97090.2
98742.6
98866.9
97905.5
94838.2
89355.1
84764.2
81257.9
78838.1
77338.5
76621.2
92386.2
92890.9
93906.3
95410.2
97185.8
97964.8
98794.9
97905.8
94903.1
90571.1
84962.5
81337.1
78866.7
77349
76628.6
92405.5
92916.8
93944.6
95470.6
96564.1
98027.1
98791.7
97897
94905.3
90614.7
86198.6
81394.4
78893.7
77364.1
76638.8
92420.9
92937.5
93973.9
95504.3
96579.4
98071.9
98849
97826.8
94917.8
90642.1
86196
81418.3
78920.3
77382.5
76651.2
92431.3
92944.6
93976.9
95506.4
96591.3
98079.8
98841.3
97925.5
94945.7
90658.4
86222.1
81429.7
78926.4
77394
76667.3
92436
92942.4
93962.2
95473.5
97260.5
98045.3
98854.6
97964.6
94966.1
90666.9
85034.4
81405.7
78930.4
77407.5
76684.3
92436.5
92935.4
93933.2
95404.2
97196.6
98864.1
98980.3
98025.4
94994.4
89488.6
84886.7
81361.9
78930.4
77422.8
76701.5
92435.5
92928.1
93911.5
95365
97143.7
98916.9
99855.4
98455.4
94341.8
89374.5
84798.4
81326.9
78932.6
77435.2
76716
92434.1
92922.4
93895
95331
97103.8
98880.4
100006
98442.1
94399.2
89255.3
84715.3
81302.4
78932.7
77443.1
76726.2
92433
92918.4
93884.9
95311.2
97077.2
98860.9
100006
98426.6
94362.3
89200.5
84678.9
81289.9
78932.8
77447.8
76732.5
92432.4
92916.6
93880.5
95303.2
97066.7
98852.5
100011
98423.4
94356.3
89184.6
84665.6
81284.7
78932.9
77450.1
76735.5
90815.5
91466.2
92811.3
94939.4
97938.1
101780
105745
103573
96793.4
88041.9
81772.2
77829.6
75322.8
73827.8
73135.2
90819.9
91472.5
92822.1
94958.4
97965.8
101810
105762
103597
96856.1
88109.9
81815.5
77843
75326.5
73828.9
73135.6
90828.6
91484.8
92844.2
94999.5
98035.8
101887
105811
103636
96917.1
88171.5
81842
77850.8
75327.7
73829
73135.1
90841.6
91506.6
92884.3
95096.8
98232.2
102067
103554
103740
98441.1
88715.4
82068.7
77904.1
75331.7
73827.2
73132.5
90855
91524.7
92934.6
95198.5
98391.7
100588
103590
103701
98533
90843.1
82232.9
77933
75328.6
73818.8
73126.4
90875
91566.9
93025.2
95445.6
97557.7
100797
103663
103613
98518.4
91069.3
84391
78038.9
75316.8
73813.9
73120.2
90886.6
91577.2
93035.9
94865.6
97634.4
100936
102736
102908
98787.6
92035.5
84605
79865.9
75277.3
73797.7
73116.2
90904.6
91604.8
93131
94889.7
97701.2
100992
102792
102915
98840.9
92107.8
84710.1
79944.6
75398.6
73807.6
73129.9
90914.1
91608.2
93077.6
94894.9
97708.8
101005
102793
102950
98843.5
92127.9
84714.3
79953.6
75315.3
73830.1
73146.4
90926
91618.6
93082.8
95516.1
97638.1
100927
102847
102990
98862
91218.8
84557.9
78121.7
75388.3
73876.5
73178.7
90932.2
91609.8
93028.6
95309
98522.8
100773
103740
103746
98621.5
91119.2
82369.8
78057.4
75432.1
73909.3
73210.8
90937.7
91608
92999.6
95233.6
98394.8
102258
103739
103936
98726.5
88893.8
82232.5
78051.5
75460.9
73941.7
73238.9
90941.5
91605.9
92981
95162
98229.4
102103
106083
103899
97162.6
88390.7
82046.6
78026.1
75476.2
73959.8
73257.4
90943.8
91604.7
92971.6
95135
98174.3
102047
106063
103865
97091.2
88319.7
82008.7
78025.6
75486.8
73971.6
73269.2
90945.1
91604.5
92968
95125
98157.4
102029
106059
103853
97064
88284.6
81990.9
78024
75490.8
73976.8
73274.6
88457.6
89232.4
90896.7
93715.6
98142.9
105169
111065
117201
104631
84093.4
76495.5
72697.7
70434.8
69200.5
68665
88458.4
89235.1
90903.6
93732.8
98180.2
105208
111085
117221
104670
84146.9
76527.8
72701.8
70433.4
69198.8
68663.4
88458.8
89236.9
90912.9
93754.5
98238.1
105303
111134
117245
104698
84121.6
76476.2
72656
70412.6
69188.7
68656.8
88461
89251.3
90945.8
93844.4
98659.2
103243
111347
117361
104587
88392.5
76625.3
72576.4
70379.6
69172.1
68643.9
88456
89242.4
90950.1
93956
97508.5
103559
111675
114887
105789
89127.2
79814.1
72480.3
70270.9
69125.4
68620.1
88462.6
89249.1
91038.2
93600.9
97688
102717
109925
113864
105856
91339.1
79993.1
74867.7
70168.5
69063.8
68592.1
88456.8
89233
91057.2
93679.5
97877.6
102781
109054
113848
106291
92281.8
81688.5
74926.7
70078.4
69003.8
68567.5
88463.5
89227.4
91110.5
93772
97280.4
102335
109110
113859
106286
92312.9
81696.7
74956.2
72034.1
68970.8
68571.1
88484.9
89262.8
91093.1
93755.3
97295.3
102832
109141
113893
106321
92347.6
81726.5
74946.4
70119.4
69038.4
68598.6
88513.6
89303.6
91103.7
93670.3
97903.6
102866
109127
113958
106399
92391.3
81801
75004.5
70244.6
69127.2
68650.8
88534.2
89329.2
91049.7
94072.9
97665
103845
109990
115016
106028
91390.2
80121.9
72626.5
70382.6
69218.3
68705.6
88557.9
89354.5
91067.2
93999.6
98859.6
103517
111677
117677
104851
88768.6
76835.2
72752.2
70523.4
69295
68753
88573.7
89363.6
91060.1
93935.1
98475.1
105602
111501
117587
104931
84384.6
76738.1
72862
70573.8
69323.3
68779.4
88584.3
89371.8
91063
93930.3
98437.6
105536
111460
117604
104976
84418.2
76776
72914
70609.2
69347.5
68798
88589.4
89375.9
91064.4
93923.7
98413.7
105511
111453
117608
104965
84396.8
76771.3
72925.5
70618
69355.4
68805.4
85006.4
85761.4
87431.4
90423.9
95390.1
102223
118520
148978
110258
77427.8
66669.5
64941.9
63899.6
63458.7
63293.8
85002.1
85757.7
87428.7
90421.1
95400
102232
118506
148963
110392
77394.1
66645.3
64921.5
63892.7
63456.4
63293
84988.8
85739.8
87403.7
90380.6
95335.8
102257
118478
148962
110629
77405.8
66505.4
64833.6
63854.4
63437.8
63284.4
84969.3
85718.1
87381.4
90208.4
94828
102720
118592
148888
110038
77424.8
69983.1
64532
63782.1
63403.1
63266.5
84928.6
85655.1
87225.5
90346.9
94913
101933
115887
148945
110838
81173
69674.4
66754.1
63542.5
63328.5
63230.7
84890.8
85545
87758.3
90445.1
94728.3
101970
114600
144061
115326
83107.5
71878
66605.6
65282.8
63205.4
63188.6
84871.5
85520.6
87783.7
90479.4
94796.8
101626
114577
144045
115303
83113.1
73095.2
68168.8
65231.7
63180.5
63170.1
84855.9
85507.1
87868.2
90531.4
94826.6
101645
114591
144069
115317
83129.3
73097.3
68163.5
65252.6
63199.4
63152.9
84898.8
85549.4
87832.1
90566.4
94869.7
101678
114632
144116
115338
83156.3
73132
68198.1
65240.6
63214.9
63200.4
84938.6
85595.7
87841.1
90507.3
94878.7
101719
114706
144202
115417
83222.9
73189.7
68255.8
65328.1
63262.4
63242
85003.2
85738.7
87326.4
90468.6
95080.9
102176
114830
144353
115580
83326.7
72181.2
66828
63658.7
63421.5
63311.9
85062.8
85821.7
87504.1
90374.7
94936.5
102930
116274
149370
110467
81709.4
70144.6
64732.9
63931.2
63519.7
63368.4
85099.4
85863.3
87555.4
90571.8
95602.9
102631
119034
149532
110568
77755.8
66849.9
65072.1
64026.6
63572.4
63400.4
85123.4
85892.2
87591.3
90631.6
95693.6
102626
119079
149627
110623
77788.3
66967.5
65161.4
64075.4
63601.4
63419
85133.8
85903.1
87603.1
90644.1
95696.1
102607
119104
149647
110634
77767
67001.2
65197.5
64091.8
63610.3
63425.4
80383.7
80874.6
81945.1
83846
86816.1
93395.7
100300
96111.8
23901.4
48794.4
52417.1
54663.9
56085.6
56988.5
57395.8
80375.5
80865
81933.2
83826
86806.8
93372.8
100276
95956.1
24140.2
48633.2
52327.2
54640.2
56088.8
56994.8
57402.7
80351.9
80832
81894.8
83797.4
86745.6
93317.6
100227
95853.5
23077.3
48494.7
52238.3
54646.7
56087.5
56995.1
57409.4
80313.6
80766.9
81812.2
83573.9
88099.1
93008.2
100095
95988.4
23797.4
48740.1
53816.1
54756.1
56101.8
56991.7
57417.6
80244
80668.4
81636.1
84772.8
87923.9
93547
101093
96162.3
23512.6
52167
55465
56177.7
56129.5
56997.5
57418.7
80157
80558.2
82851.1
84710.2
88464.1
93870.4
101014
96137.6
24058.8
52611.2
56488.7
56294.3
57405.3
57050.4
57419.3
80139.1
80530.9
82874.3
84675
88761.2
93862.9
100995
96161.6
23888.9
52710.2
56649.8
57329.5
57393.7
57108.2
57449.2
80130.3
80512.1
82861.4
85337.2
88790.8
93876.8
101010
96151
23625.4
52729.5
56713.8
57906
57453.2
57151.7
57454.4
80162.7
80557.1
82875.7
85345.6
88814
93909.4
101055
96235.5
23416
52727.7
56739
57927.5
57430
57135.7
57473.8
80198.3
80605.8
82918.8
84731.8
88825.5
93962.6
101134
96367.2
23611.2
52806.3
56743.6
57399.7
57441.8
57104.8
57464.8
80308.4
80738
81720
84838.7
88594.9
94037.3
101261
96517.8
25226.5
52900.2
56661.1
56324.7
56243.7
57079.1
57486.3
80395.3
80861.2
81935.5
83730.3
88226.6
93034.5
100350
96819.5
23603.5
51013.8
54100.2
54978.6
56246.3
57095.7
57502.4
80449.4
80942.3
82033.8
83988
87002.4
93493.1
100660
96905.9
23890.9
49202.3
52676.1
54900.2
56256.1
57113.6
57505.1
80482.7
80986.5
82085.5
84026.7
87087.4
93741.2
100829
97010.8
23553.2
49217.2
52750.5
54905.1
56264.8
57119.9
57504.9
80496.4
81002.1
82104.5
84057
87109.2
93787.6
100883
97065.6
23516.6
49226.2
52817.6
54931.7
56267.6
57119.3
57502.7
74828
74828.3
74806.2
74772.3
74997.2
79212.3
82737.7
95360.9
3059.65
28125.5
38786.2
44663.7
48481.3
50711.6
51709.6
74822.3
74821.2
74800.2
74767.3
75012
79197.7
82720.2
95130.7
2647.38
27586.8
38660.7
44663
48504.8
50733.7
51730.5
74806.7
74800.8
74782.2
74791.9
75034.6
79149.1
82676.8
95041.6
2253.4
26540.4
38656.5
44738.4
48559.2
50779.1
51770.2
74782.9
74753.7
74748.9
74920.2
77799.3
79164.3
82566.1
95069.8
4637.86
28164.9
39421
45088.9
48702.4
50863.5
51837.1
74740.2
74695
74760.4
76933.1
77919.5
81003.6
83708.6
95227.6
2362.38
28762.4
40348.3
46170.3
48955
51000.3
51925.8
74682.7
74701.9
76415.1
76932.1
79212.4
81850.5
83691.5
95039.8
5523.46
29274.7
40923.1
46350.8
49845.7
51186.6
52017.4
74685.4
74705.6
76415.8
76951.1
79896.3
81826.4
83689
95058.4
2666.59
29383.7
41099.9
46866.9
49919.4
51282.6
52089.4
74682.5
74697.2
76396.5
77996.3
79891.5
81833.6
83708.5
95035.6
2751.8
29417.6
41179.3
47162.3
49974.8
51329.4
52107.6
74700
74722.6
76405.6
77997.5
79913.1
81862
83744.1
95105.9
2389.92
29433.6
41200
47179.9
49968.5
51300.5
52103.9
74714.3
74739.4
76435.3
77010.9
79947.3
81914
83799.3
95174.3
2365.16
29471
41176.1
46931.6
49932
51229.4
52051.2
74786.7
74747.4
74830.3
77001.6
79346
82008.5
83881.2
95244.8
5918.41
29473.2
41068.7
46361.1
49054.3
51062.6
51970.3
74843.3
74824.2
74841
75043.7
78046.5
79542.1
83116.4
95557.6
2376.83
29111.3
40047.6
45321.4
48834.8
50944.4
51893.4
74879.7
74884.9
74889.1
74937
75228.6
79402.7
82986.5
95520.5
3126.06
28816.9
39226.4
45011.2
48707.3
50864.4
51830.1
74903.1
74914.7
74920.9
74929.6
75223.9
79462.8
83098.2
95578.5
2692.03
28689.7
39142.1
44914.9
48649.1
50819.2
51791.5
74913.4
74927.1
74933.4
74942.9
75216.9
79512.8
83149.1
95600.2
2423.82
28608.7
39174.5
44891.4
48621.4
50798
51771.9
68987.1
68443.1
67327.7
65632.8
65602.9
65304.7
68196.8
2159.81
20204.9
31034.8
37974.8
42846.5
45805.8
47187.2
68989.4
68445.5
67334.6
65650.4
65606.3
65303.2
68193.3
2246.55
19798
30892.8
37983
42875.6
45838.1
47218.8
68994.9
68454.1
67340.5
65663.3
65680.8
65334.6
68173.8
2271.97
18546
30861.6
38054.5
42953.3
45913.5
47282.9
69013
68470.2
67354
65842.4
66150.6
65339.4
68078.2
2227.31
19937.6
30852.6
38500.5
43155.6
46055.5
47390.3
69040.9
68503.7
67557.9
67974.4
66795.4
67394.4
68756.8
2247.56
18952.7
30969.4
38707.2
43428.2
46250.6
47533.8
69060.9
68660
69197.1
68268.9
68237.4
68397.1
68779.6
2996.26
19205.8
31072.8
38964.6
43762.8
46402.4
47676.5
69095.2
68715.6
69167.8
68405.7
69074.7
68493.4
68832.5
2295.72
19324.4
31266.3
39068
43896.9
46485.1
47752
69098.2
68725.2
69172.7
69351.2
69188.4
68549.1
68878.2
2294.52
19382.9
31368.1
39149.5
43923.3
46524.8
47767.7
69100.5
68722.2
69166.7
69365.5
69203.4
68568.5
68904.7
2302.05
19404.5
31378.6
39155.6
43914.8
46488.3
47753.1
69074.9
68677.2
69173.1
68426.5
69116.8
68552.6
68913.2
2318.69
19375.4
31305.3
39082.7
43877.5
46417
47689.9
69062.3
68530.6
67599.9
68066.9
68269.3
68494.5
68914.2
2331.79
19281
31170.9
38925
43472.1
46276.5
47539.8
69042.1
68506.6
67405.1
65918.2
66440.8
65642.2
68112.4
2344.22
19771.7
31434.4
38664.3
43240.5
46090.5
47402.6
69031.2
68499.1
67402.5
65750.5
65908.4
65516.3
68372.1
2374.9
20633.2
31527.3
38308.2
43056.5
45946.7
47290.5
69030.9
68497
67407
65756.9
65817.1
65518.3
68457.3
2380.89
20671.3
31307.1
38172.7
42957
45861.4
47219.9
69031.7
68498.5
67405.6
65749.1
65738.3
65512.2
68488.4
2427.65
20699.6
31298.5
38110.5
42907
45821.2
47184
63706.7
62635.5
60414.3
56679.1
55023.6
49147.5
46238.6
2270.71
2168.45
17905.3
27846.1
34901.6
39916.8
43049.9
44565.8
63713.4
62642.3
60422.5
56689.8
55024.2
49141.4
46244.4
2269.63
2222.01
19056.6
27985
34947.8
39950.2
43083.5
44597.8
63728.7
62662.2
60431.9
56661.2
55040.3
49126.4
46238.9
2639.31
2252.28
16775.2
27824.6
34987.8
40010.8
43155.7
44661.7
63767.2
62708.7
60423.8
56737.9
55101.2
49112.5
46258
2375.43
2238.14
16165.4
26558.7
35272.4
40190.3
43295.4
44766.7
63838.3
62779.2
60551.1
59597.8
55254
51843.2
48092.4
2354.78
2365.31
14880.6
26081.5
34563.9
40384.6
43475.4
44901.3
63906.5
62930.5
62479.3
59718
57144.2
53187
48302.5
3116.08
2277.79
15047.9
25954.2
34771.9
40029.8
43590.4
45037
63951.2
62983.8
62524.6
59768.3
58062.3
53345.6
48442.3
2434.75
2307.97
15286
26218
34466
40173.4
43648.8
45097.9
63954.7
63003.4
62537.9
61018.3
58174.1
53461.1
48540.7
6289.11
2356.5
15650.5
26418.2
34347.9
40225.2
43675.8
45108
63945.4
62978.9
62527.9
61031.9
58178.7
53470.4
48563.6
3111.29
2308.05
15596
26398
34337.4
40203
43633.8
45082.3
63897.1
62925.2
62511.6
59768.4
58099
53379.1
48509.6
2931.5
2310.09
15300.7
26193.5
34435.1
40116.7
43567
45018.7
63826.9
62772
60555.5
59659.5
57154
53241.2
48410.5
3324.79
2304.26
15101.4
25976.6
34674.9
40359.5
43444.9
44852.4
63755.4
62702.6
60430.8
56772.3
55152.9
49312.5
46519.7
2663.4
2311.58
15624.8
26918.5
35297.1
40177.5
43254.4
44715.9
63717.8
62658.4
60443.4
56703
55090.3
49242
46418.4
2326.49
2368.23
16076.4
28147.4
35065.8
40004.6
43105.3
44595.7
63704.2
62641
60438.3
56739.4
55119
49280.3
46442.8
2915.7
2378.49
18019.9
27810.1
34905.6
39889.8
43008.6
44515.3
63698.4
62636
60433.3
56733.7
55109.9
49305
46459.7
3291.83
2364.54
18071.8
27835.7
34846.4
39836.6
42961.2
44473
59768.8
58209.1
54942.3
49325.2
40184.8
32915.1
13286.1
2266.66
2174.84
18293.1
27450.1
34444.1
39458.4
42567.9
44097.3
59771.1
58210.5
54938.1
49322.7
40174.2
32886.3
13237
2264.02
2235.76
19433.5
27429.3
34505.4
39494.3
42596.4
44122.4
59777
58220
54941
49297.5
40116.1
32656.3
13156.5
2263.34
2268.36
16593.7
27567.4
34511.6
39523.1
42650.8
44169.1
59799.9
58263.8
54919.7
49366.5
44747.5
32566.4
13105.7
2281.39
2235.59
15752.4
25199.1
34663.2
39644.8
42753.2
44247.2
59859.5
58335.4
55011.6
52343
44973.6
36388
19246
2299.67
2294.1
13534.4
24319
33108.8
39762.9
42904.4
44344.3
59927.8
58393.8
57029.8
52481.6
47332.8
38371.1
20371.2
2272.08
2294.78
13657
24078.1
33324.4
38708.6
42990.7
44461.4
59955.1
58418.1
57151
52565.3
48495.3
38721.2
20659.6
2277.83
2299.79
14293.4
24559.3
32748.7
38845.5
43036.9
44505.4
59951.3
58435.5
57191.7
54056.5
48623.9
39077.3
21074.6
2479.62
5910.21
15542.6
25039.9
32529.5
38912
43052.2
44509.6
59933.7
58394.2
57171.7
54048.1
48611.9
39054.6
21022.1
2336.33
2341.3
15251.4
24940.9
32491.5
38876
43001.1
44468.8
59888.8
58355.2
57129.1
52499.7
48479.4
38706.1
20696
2268.72
2293.6
14088.5
24404.1
32649.9
38761.8
42924
44392.9
59806.9
58284.1
54960.4
52495.9
47280.4
38375.6
20451.9
2262.57
2298.09
13590.8
23979.6
33138.8
39655.5
42809.8
44242.5
59737.8
58204.4
54867.5
49330.9
44884.6
32903.8
14829.9
2309.92
2281.01
14193.4
25304.4
34538.1
39507.2
42617.3
44121.1
59709.6
58156.8
54888
49266
40129.1
32744.4
13271.6
2280.05
2373.14
15870.2
27332
34392.5
39359.8
42491.3
44009.9
59700.7
58145.2
54884.2
49293.4
40199.5
32896.4
13335.3
2258.6
2347.61
18204.8
26877.8
34227.5
39236
42397.7
43933.3
59697.2
58143.1
54889.1
49298.4
40218.7
33013
13449.4
2260.76
2356.39
18227.1
27066.3
34172.6
39185.5
42351
43893.4
57878.8
56040.2
52189.3
45790.5
35638.2
25431.4
2175.7
2247.99
2178.46
18641.1
29013.5
36206.9
41182.5
44237.3
45710.6
57868.9
56030.4
52167.6
45770.4
35692.5
25442.6
2193.87
2240.77
2206.38
18760.8
28877.4
36232.4
41196.4
44254.8
45725.6
57853.3
56016
52138.2
45665.7
35848
25892.8
2213.79
2276.03
2255.55
15578.5
29173.7
36258.8
41223.3
44285.2
45752.3
57846.8
56045.7
52152.2
45784.8
39207.2
25796
2472.58
2289.34
2250.06
15738.2
26090.8
36365.3
41298.7
44341.7
45802.2
57876.2
56116.6
52302.8
48103
39399.1
28667.4
12396.1
2294.9
2285.13
13733.8
24923.3
34132.3
41397.6
44454.4
45866.3
57924.4
56166.7
53762.8
48295
41403.8
30245.1
12775.2
2279.94
2280.42
14056.6
24652.3
34373.9
39735
44535.5
45958.3
57928.4
56177
53878.4
48484.8
42557.4
30997.9
13508.3
2298.5
2296.26
15664.2
25483.8
33576.1
39862.7
44576.3
45984.4
57915.8
56178.2
53934.6
49720.4
42851.5
32137.6
18846.3
2252.67
33150.2
20989.6
26454.3
33296.3
39936.2
44580.1
45982.1
57888.1
56133.8
53903.7
49684.4
42811.6
32068.1
17405.8
2295.12
5230.01
18934.1
26203.8
33224.4
39888.5
44518.9
45928.1
57849
56084.6
53804.1
48339.7
42469.4
30889.5
13444.2
2277.62
2312.48
14877.8
25135.9
33402.2
39740.9
44424
45846.5
57773.5
56008.8
52179.9
48191.6
41241.7
30155.4
12755.7
2275.84
2286.75
13808.9
24415.8
34091.5
41209.7
44283
45704.9
57725.3
55920.3
52020.6
45653.3
39206.1
26265.7
11618
2290.61
2314.7
14422.5
26054.5
36096.9
41045.3
44116
45589.2
57719.7
55880.2
52000.6
45535.3
35752.7
25960
2408.74
2280.42
2380.72
15617.8
28755.3
35944.8
40907.8
44005.1
45487.6
57727.6
55887.6
52025.4
45631.6
35617.3
25351.2
2418.74
2271.95
2372.31
17270
28031.4
35701.3
40769
43911.7
45415.6
57733.9
55894.6
52045.9
45650.2
35575.8
25342.6
2437.26
2258.01
2409.39
18018.4
28289.2
35709.3
40751.3
43876.6
45381.8
58533.7
56771.4
53052.3
47057.3
36728.9
23958.4
2224.44
2285.94
2178.08
23109.7
33349.8
40412.3
45121.1
47909.4
49230.4
58505.5
56741.4
53006.6
46973.2
36729.3
23902.2
2234.28
2279.47
2201.49
22855.8
33205.5
40384.3
45101.5
47907.9
49231.6
58457.4
56684.6
52926.7
46686.5
37634
24577.3
2366.17
2269.98
2235.44
17895.8
33442.6
40469.5
45119.7
47921.9
49239.8
58412.1
56655.7
52878.8
46635
38982
25057
4611.56
2284.09
2250.89
18074.9
29446.8
40548.5
45155.5
47941.1
49264.1
58397.7
56671.7
52928.5
47800.7
38832.5
27175.8
11254.2
2292.42
2278.68
15541.7
27914.8
37643
45248.4
48027.8
49299.5
58409.7
56690
53532.5
47835
40150.7
28422.5
11502.4
2295.66
2285.75
16137.4
27540.4
37860.3
43029
48117.8
49375
58383.9
56670.4
53592.1
47973.6
41074
29607.9
13106.2
2290.74
2292.79
17947.2
28517.7
36770.1
43123.4
48146.3
49382.3
58358.2
56646.3
53616.2
48771.9
41443.9
31546.9
21963.4
13387.4
2262.55
20832.8
29531.3
36358.2
43177.9
48136.8
49372.2
58321.2
56598.9
53578
48707.9
41335.6
31307.2
23477.1
2302.18
2349.18
20353.9
29298.3
36273.5
43128
48070.8
49310.3
58295.4
56562.3
53483.2
47760.5
40839
29170.7
12725.8
2303.59
2310.42
17171.4
28098.9
36560.3
42984.9
47966.6
49227.3
58241
56498.7
52718.8
47680.9
39848.9
28125
11343.3
2303.84
2311.16
15769.9
27207.8
37535.2
44996.5
47799.4
49086.3
58226.7
56456.4
52652.5
46379.2
38703.3
25428.4
10609.5
2293.02
2352.16
16365.5
29331
40155.7
44805.2
47632.8
48975.8
58252.5
56467.3
52687
46426.7
37376
24831.9
4366.76
2268.95
2386.66
17821.7
32913.9
39989.1
44681.4
47541.7
48884.7
58287.7
56511
52755.6
46691
36455.4
23721.3
2359.19
2275.6
2379.77
21045.7
32118.8
39677.6
44522.6
47445.1
48817.8
58309.8
56535.4
52797.6
46772.6
36462.6
23785.2
2369.5
2291.54
2417.04
22009.6
32417.1
39738.7
44538.7
47425.2
48793.1
61730.9
60359.9
57389
52679.4
43912.8
31240.9
2222.17
2294.22
2356.93
33734.1
41396.4
47617.5
51349.2
53460
54456.3
61678.5
60295.7
57294.4
52461.3
43619.4
30781.6
2233.62
2294.29
2228.51
33065.4
41170.9
47495.4
51281.5
53431.9
54438.8
61585.8
60175.5
57151.5
51921.5
44427.4
30039.1
7526.01
2276.87
2222.32
24479.6
41576.2
47512.8
51248.3
53419.8
54423.3
61481.5
60046.8
56936.8
51669.3
43456.7
29519.5
8586.29
2291.76
2244.77
24081.7
36320.1
47494
51192.9
53395.3
54415.6
61399.7
59960.7
56815.9
51420.1
42901
30472.5
12822.6
2287.26
2264.01
19974
34039.7
43907.4
51288.3
53441
54421.8
61350.5
59915.5
56441.7
51136.1
43291
31264.6
13328.6
2287.44
2277.01
20985
33328.9
43982.4
48538.4
53545.8
54473.2
61281.5
59840.3
56328.3
51074.9
43662
32288.9
16914.3
2315.64
2300.61
24387.8
34251.4
42447.8
48546.5
53550.9
54460.4
61236
59784.5
56287.1
51257.6
43725.4
33074.4
16823.9
8393.69
2165.32
30154.9
35136.2
41789.2
48572.2
53531.3
54442
61198.6
59739.8
56246
51171.4
43521.2
32400.5
16278.8
14465.9
23330.7
28217.1
34906.3
41721.1
48526.3
53467.6
54379.3
61200.7
59742.5
56207.2
50842
43222.3
31086
13563.5
2313.92
2315.83
22533.5
33811.3
42276.4
48423.3
53371.5
54305.4
61194.9
59728
56518.5
50963.4
42826.1
30582.2
12776.1
2298.44
2328.81
20390.3
32979.6
43699.8
50987.9
53174.6
54167.7
61238.2
59776.9
56611.8
51263.2
42738.3
29264.2
12027.7
2291.41
2349.57
21106.1
35962.7
46995.6
50765.5
53024
54073.7
61315.3
59879.3
56801.5
51495.5
43916.5
29544.9
8359.56
2268.9
2393.45
23565.1
40758.5
46865.3
50707.2
52963.1
54003.9
61390
59980.1
56925.5
52002.3
43088.1
30119.5
2371.27
2303.55
2401.08
30629.5
39941.4
46595.4
50585.5
52884.7
53952.8
61434
60036
57013.2
52211.8
43382.1
30587.9
2383.86
2308.8
2502.46
32111.4
40305.6
46752
50645.5
52887.9
53943.5
66944.8
66210.2
64559.2
62197.8
57225.2
51322.3
29107
2272.44
45057.5
54630.2
54681.3
58043.2
59586
60526.9
61004.2
66867.3
66103
64393.2
61809.5
56445.9
49762.9
24511.8
2278.8
42517.8
53472.4
54259
57786.1
59461.8
60468.1
60964.6
66731.2
65914.9
64187
61003.9
56998.5
43970.9
20953
2322.39
2243.16
40297.2
54416.4
57430.8
59326
60407.5
60914.3
66565.7
65692.4
63786.9
60645.6
53076.5
41581.5
18220.8
2315.7
2234.77
37480.8
47963.4
57240.7
59143.9
60326.2
60860
66417.7
65515.5
63559.3
58628.1
52117.7
40212
19184.6
2258.13
2255.96
29859.1
44687.6
53155.2
59171.6
60310.7
60824.4
66317.6
65428.8
62028.6
58106.8
51134.5
39563.2
19284.2
2268.44
4546.68
30479.1
43108.5
53040
56150.3
60342
60841.4
66207.1
65303.9
61742.7
57819.7
50583.5
39455.6
24337.9
17960.5
18161.1
31648.6
43110.4
50881
56070.6
60309.9
60795
66143.9
65225.4
61636.9
57209.5
50161.8
38250.1
15832.5
2254.02
2261.74
28103.9
42830
49816.6
56086.7
60281.3
60766.6
66114.2
65192.7
61598.6
57126.8
49954.5
37661.8
15344.1
2285.81
23700.3
30101.2
42990.2
49816.3
56057.3
60223
60708.9
66147.2
65229.2
61636.5
57650.9
50091.3
38085.1
18001.2
8532.65
7669.57
31590.3
43223.8
50860.4
55991.7
60157.9
60664.6
66182.1
65242.3
63198
57895.4
50639
38710.3
18404.4
2323.77
2377.48
30684
43092.3
52867.5
58841.7
60023.9
60547.4
66283.4
65371.7
63379.8
60086.6
51926.8
40190.1
18418.8
2323.91
2369.88
31780.5
47186.5
56647.8
58664.5
59923.7
60498.2
66415.6
65559.9
63744
60403.8
56148.9
41958.7
18287.7
2366.48
5509.37
36943.2
53278.8
56610.8
58709.4
59907.9
60465.1
66529.7
65722.9
63920.4
61132.9
55400.3
47902.7
18361.8
2376.07
24324.3
48458.8
52184.8
56594.2
58684.3
59876.7
60446.4
66597.2
65820.2
64079.8
61514.8
56224.9
49625.9
24597.9
2391.16
39172.2
51945.7
53175.2
56969.9
58811.1
59913.1
60459.5
73293
73354.7
73485.2
74822.5
77129.3
87091.2
129043
126147
101298
79191.3
71547.7
70241.9
68807.6
68344.6
68195.7
73202.4
73217.7
73274.8
74347.8
76214.2
85719.7
126115
119025
98954.6
78483.8
71047.7
69903.2
68656.2
68263.5
68139
73043.9
72973.8
72992.3
72982.7
74847.6
70987.1
83810.7
75620.4
79146.3
68539.4
70250
69059
68428.1
68146.1
68053.1
72841.8
72698
72424
72350.3
68350.9
65610.1
58000.7
7041.76
41111.9
64349.8
65063.8
68536.8
68140.5
68003.5
67948.7
72653.4
72459.1
72055
69022.4
66982.6
59903.3
41296.3
2282.62
17153.2
52456.3
61216.8
65037.2
67938.1
67905.3
67858
72529.9
72264.8
69796.8
68334.3
64054.3
56672.7
38073.6
4706.55
16161.7
50111.8
58617.8
64677
65342.6
67769.8
67801.7
72397.7
72109.3
69486.5
67913.1
62453.9
54817.9
34282.5
4915.32
40372.2
48486.5
57717.1
62396.4
65219.4
67677.5
67718.8
72330.2
72030.8
69349.7
66340.1
61859.6
53115.8
28319.2
2470.3
2265
43691.3
56841.8
61040.7
65143.8
67629.5
67677
72308.3
72005.3
69318.1
66284.9
61726.5
52991.2
29837.8
2280.79
6722.09
46211.9
57212
61076.2
65124
67586.8
67623.3
72361.6
72070.2
69392.9
67786.7
62076.3
54223.9
34442.3
2221.3
57166
52148
58319
62442.4
65158.5
67588.4
67636.2
72416
72184.3
71689.8
68161.8
63566.7
55807.9
37382.1
13608.9
29936.6
52578.4
58864.9
64522.8
67606.8
67626.6
67591.1