/*--------------------------------*- C++ -*----------------------------------*\
| =========                 |                                                 |
| \\      /  F ield         | OpenFOAM: The Open Source CFD Toolbox           |
|  \\    /   O peration     | Version:  v2012                                 |
|   \\  /    A nd           | Website:  www.openfoam.com                      |
|    \\/     M anipulation  |                                                 |
\*---------------------------------------------------------------------------*/
FoamFile
{
    version     2.0;
    format      ascii;
    class       volScalarField;
    location    "0.031";
    object      p;
}
// * * * * * * * * * * * * * * * * * * * * * * * * * * * * * * * * * * * * * //

dimensions      [1 -1 -2 0 0 0 0];


internalField   nonuniform List<scalar> 
449343
(
105648
105781
106005
106223
106320
106082
105312
103940
102018
99753.8
97439.6
95347.1
93665.5
92502.1
91909.9
105626
105760
105983
106202
106298
106059
105289
103918
101998
99736.6
97424.1
95331.9
93649.4
92485.1
91892.4
105603
105737
105960
106178
106274
106032
105261
103891
101976
99720.9
97412.7
95321.1
93637
92470.7
91876.9
105578
105713
105936
106154
106247
106000
105229
103861
101952
99706
97405
95314.5
93627.6
92458.3
91862.6
105552
105687
105911
106128
106219
105966
105193
103828
101929
99692.5
97400
95310.5
93620
92446.5
91848.5
105526
105661
105886
106101
106190
105933
105159
103798
101906
99681
97395.7
95306.5
93611.3
92433
91832.4
105499
105634
105859
106073
106160
105901
105127
103768
101883
99667.8
97384.8
95297.1
93597.3
92414.8
91811.9
105469
105605
105830
106045
106129
105871
105094
103735
101854
99644.9
97364.6
95275.7
93573.3
92388.7
91784.6
105440
105575
105799
106014
106099
105842
105069
103712
101829
99613.5
97329
95239.1
93537.5
92353.5
91749.7
105410
105544
105768
105982
106070
105814
105041
103682
101792
99568.4
97280.7
95189.1
93490.9
92310.1
91708.1
105380
105514
105737
105951
106040
105788
105016
103653
101756
99520.3
97226
95133.4
93439.1
92262.5
91662.8
105353
105485
105707
105921
106012
105765
104994
103627
101720
99474.1
97171.3
95077.5
93387
92214.6
91617.2
105327
105459
105679
105894
105985
105742
104970
103600
101686
99431
97121.2
95026.6
93339.2
92170.1
91574.7
105303
105435
105654
105868
105960
105718
104946
103574
101654
99392.9
97078.9
94984.2
93299
92132.3
91538.2
105281
105413
105632
105846
105938
105696
104924
103550
101627
99363
97047.4
94952.7
93268.6
92103.1
91509.7
105503
105684
106006
106377
106651
106634
105999
104564
102389
99787.4
97177.9
94890.4
93102.1
91887.7
91276
105481
105662
105985
106356
106630
106611
105975
104541
102369
99771.6
97163.9
94875.9
93086
91870.4
91258
105457
105639
105962
106334
106606
106583
105944
104512
102347
99759.5
97156.9
94867.3
93073.8
91855.5
91241.8
105432
105614
105939
106310
106580
106547
105903
104471
102319
99749
97156.8
94865.2
93065.6
91842.6
91226.7
105405
105589
105915
106287
106554
106505
105860
104433
102282
99741.7
97164.2
94868.9
93060.3
91830.8
91211.8
105378
105563
105891
106264
106527
106471
105819
104400
102266
99739.3
97174.5
94874.9
93055.3
91817.8
91195.2
105350
105536
105866
106239
106496
106443
105788
104373
102249
99738.9
97187.7
94876.9
93044.7
91800.3
91174.3
105321
105507
105836
106210
106465
106411
105751
104287
102215
99717.2
97173.2
94858.9
93021.4
91774.2
91146.5
105291
105476
105805
106178
106433
106383
105729
104315
102198
99685.8
97133.5
94819.8
92985.1
91738.1
91110.8
105261
105445
105771
106143
106405
106347
105699
104284
102155
99629.8
97061.9
94758.8
92933.5
91692.5
91068
105232
105414
105738
106107
106371
106322
105678
104256
102112
99572.8
96992.1
94691.7
92877.3
91643.2
91021.8
105204
105385
105706
106075
106340
106306
105663
104235
102087
99517
96922.2
94625.8
92820.9
91593.6
90975.3
105179
105359
105678
106045
106312
106285
105645
104215
102053
99466
96861.3
94567.7
92769.8
91547.8
90932.1
105156
105335
105653
106018
106285
106262
105623
104189
102018
99421.1
96811.9
94520.9
92727.6
91509.1
90895.2
105134
105313
105630
105995
106262
106239
105600
104164
101990
99388.3
96777.3
94487.5
92696.3
91479.5
90866.4
105133
105421
105968
106698
107438
107980
107754
106156
103305
99819.3
96485.2
93756
91736.9
90415
89763.1
105110
105398
105947
106678
107418
107957
107727
106132
103287
99806.8
96474
93742.2
91720.3
90396.7
89744.1
105084
105373
105924
106658
107399
107931
107689
106103
103265
99805.9
96477.8
93737.5
91707.9
90380.2
89726
105056
105347
105902
106639
107380
107889
107619
106053
103213
99808.6
96500.5
93745.7
91701
90365.9
89708.8
105027
105321
105881
106623
107359
107826
107510
105938
103132
99836.4
96538.9
93764.8
91699.8
90353.2
89691.7
104998
105295
105861
106607
107345
107774
107444
105902
103128
99868.1
96599.9
93793
91700.2
90340.2
89673.1
104968
105268
105837
106592
107309
107752
107406
105876
103122
99883.8
96715.6
93820.8
91698.7
90323.3
89650.7
104938
105239
105808
106566
107284
107731
107394
105839
103094
99866.3
96707.2
93807
91676.3
90296.6
89621.4
104908
105206
105774
106529
107244
107687
107344
105819
103076
99833.8
96666.9
93764.5
91637.3
90257.8
89583.3
104878
105174
105738
106481
107217
107641
107320
105790
103030
99765.6
96496
93679.5
91575
90208.7
89538.4
104850
105142
105697
106436
107167
107627
107316
105758
102970
99672.6
96370.4
93586.2
91509.9
90155.7
89490.4
104824
105113
105662
106395
107130
107632
107367
105812
102982
99576.1
96263.4
93499.3
91444.7
90102.7
89442.2
104801
105087
105632
106360
107092
107612
107371
105790
102960
99503
96171.5
93424.4
91387.4
90054.4
89397.5
104779
105064
105606
106330
107060
107585
107353
105760
102918
99439.3
96104.5
93368.4
91341.6
90014.3
89359.7
104759
105043
105584
106306
107035
107562
107332
105734
102885
99399
96063.3
93331.3
91308.8
89984.1
89330.6
104407
104851
105738
107047
108647
110238
111184
109272
104936
99591
95030.1
91691.6
89404.3
87978.4
87296.6
104381
104826
105715
107026
108628
110216
111147
109245
104913
99579.8
95019.7
91675.7
89385
87958
87275.8
104351
104798
105691
107010
108619
110202
111112
109228
104916
99613.7
95038
91670.8
89368.7
87937.9
87254.5
104318
104768
105669
107001
108612
110189
110882
109199
104801
99705.1
95108.5
91685.6
89358.3
87919
87233
104283
104738
105651
106996
108619
110091
110074
108853
105542
99876.4
95221.8
91729
89355.4
87901.5
87211.1
104249
104710
105643
107028
108658
109277
109910
108799
105598
101112
95391.9
91789
89358.9
87882.8
87187.5
104215
104683
105626
107025
107988
109283
109844
108746
105577
101155
96668.6
91832.8
89358.7
87863.5
87160.9
104183
104653
105600
107000
107956
109270
109838
108632
105558
101160
96645.5
91818.4
89341
87836.9
87127.4
104153
104618
105557
106955
107916
109220
109780
108673
105540
101132
96620.8
91775.1
89291.6
87792.6
87087.5
104126
104585
105513
106893
108517
109145
109750
108664
105499
101075
95314.9
91680.9
89231
87742.9
87041.6
104100
104552
105457
106794
108411
109860
109854
108669
105452
99723.8
95065.8
91549
89155.6
87689
86992.7
104081
104526
105419
106741
108343
109904
110599
108938
104579
99485.3
94875.1
91430.3
89084.7
87634.5
86943.4
104062
104504
105387
106694
108289
109847
110757
108892
104596
99299.5
94718.1
91337.6
89023.4
87584.9
86897.8
104045
104485
105363
106661
108248
109808
110736
108844
104519
99186.9
94623.7
91272.9
88975.5
87543.9
86859.4
104027
104466
105342
106637
108221
109783
110725
108817
104481
99135.9
94574.1
91232.8
88942
87513.4
86830.1
103130
103744
105021
107060
109927
113519
117399
114723
107403
98355.3
92116.1
88299.6
85912.4
84514.3
83875.4
103100
103714
104993
107036
109908
113499
117351
114691
107375
98339.3
92096.7
88273.4
85886.2
84489.8
83851.8
103061
103678
104962
107019
109916
113512
117324
114669
107426
98390.1
92111.6
88251.1
85857.4
84462.4
83825.1
103015
103636
104933
107035
110020
113627
114936
114702
108965
98820.9
92270
88260.5
85829.5
84432.9
83796.2
102967
103592
104910
107047
110058
112082
114851
114586
109061
101121
92465.6
88285.7
85808.9
84401.6
83765
102920
103558
104917
107199
109146
112205
114808
114425
109009
101416
94697
88398
85776.5
84371.6
83731.2
102875
103512
104873
106578
109166
112243
113838
113722
109349
102440
94939.7
90235.4
85719.7
84324.9
83692.8
102842
103484
104899
106535
109159
112228
113815
113683
109386
102523
95038.6
90285.5
85787.5
84287.7
83657.4
102810
103443
104795
106485
109107
112178
113751
113664
109350
102514
95000.8
90247.7
85639.6
84243.4
83609.4
102795
103430
104781
107050
108987
112047
113771
113646
109299
101483
94758
88291.5
85646.9
84217.4
83568.2
102779
103398
104703
106823
109819
111874
114572
114277
108883
101223
92353
88109.3
85592.4
84165.3
83521.1
102774
103388
104671
106752
109710
113294
114599
114409
108881
98658.4
92055
87993.1
85530.3
84117.3
83473.6
102767
103377
104645
106679
109547
113109
116911
114337
107088
98069.5
91773.5
87887.1
85475.9
84070.9
83429.1
102758
103366
104629
106649
109492
113043
116890
114265
106946
97914
91662.5
87828.1
85433.1
84031.9
83391.5
102745
103352
104613
106628
109466
113015
116888
114231
106892
97839
91605.8
87790.3
85401.9
84002.4
83362.6
101057
101792
103381
106115
110491
117395
123025
128435
114852
93823.2
86562.2
83045
81021.3
79965.5
79522.3
101020
101754
103344
106082
110468
117370
122982
128373
114765
93732.3
86501.8
82992.4
80982.4
79935.3
79495.5
100966
101701
103292
106030
110439
117370
122919
128288
114655
93632.3
86408.3
82902.8
80928.4
79896.9
79462.9
100899
101637
103239
106027
110735
115119
122915
128303
114606
98092.7
86476.5
82771.4
80857.9
79851.8
79425.1
100823
101555
103153
106018
109463
115307
123095
125804
115950
98831.2
89751.2
82668.1
80737.7
79787.4
79381.3
100754
101475
103144
105569
109490
114290
121230
124656
115986
101238
89987.5
85077
80618.2
79710.3
79331.5
100685
101391
103082
105546
109552
114238
120226
124569
116543
102342
91803.5
85160.4
80503.4
79625.1
79275.3
100638
101329
103066
105558
108876
113678
120149
124497
116603
102505
91881.2
85202.8
82407.2
79555.7
79227.7
100619
101322
103004
105489
108821
114082
120083
124455
116631
102556
91884.8
85131.1
80414
79527.9
79176.6
100626
101342
102994
105373
109378
114081
120022
124463
116629
102501
91837.3
85070.8
80464
79526.3
79140.7
100632
101354
102933
105768
109156
115028
120854
125443
116049
101235
89908.4
82490.1
80490.5
79513.6
79098.1
100655
101385
102967
105716
110368
114745
122526
127955
114493
98246.6
86282.6
82479.6
80516.7
79489.3
79054.5
100669
101393
102962
105668
110024
116888
122438
127845
114371
93338.7
86040.3
82492
80493.5
79450.1
79011.9
100677
101402
102971
105676
110013
116858
122431
127843
114295
93264.2
86011.7
82486.7
80468.5
79417.2
78976
100671
101396
102965
105665
109994
116841
122448
127838
114239
93183
85962
82459.9
80443.5
79390.3
78947.9
97975.5
98681.7
100263
103157
108119
114956
131473
161513
119118
86369
76384.9
75198.6
74574.6
74417.3
74393.7
97927.6
98631.5
100209
103097
108060
114905
131396
161414
118746
86083
76231.2
75102.2
74521.8
74382.7
74366.1
97851.9
98547.7
100112
102966
107881
114797
131206
161233
118436
85832.9
75990
74950
74444.9
74335.2
74332.2
97753.2
98438.8
99983.8
102678
107186
115043
131084
160936
118146
85820.7
79226.3
74575.9
74330.5
74274.8
74292.6
97627.8
98283.2
99720.4
102665
107097
114034
127960
160575
119100
89791.2
78981.5
76704.2
74089.4
74189.2
74243.6
97503.2
98077.4
100126
102635
106746
113846
126325
155290
124040
92010.2
81347.9
76641.8
75712.3
74086.7
74190.3
97415.9
97977.8
100061
102548
106663
113284
125966
154817
124468
92497.2
82805
78207.4
75620.7
74044.2
74139.4
97346.9
97906.2
100066
102507
106574
113120
125683
154414
125227
93023.9
82976.8
78243.1
75630.3
73993.8
74059.6
97349.2
97907.3
99988.3
102486
106538
113037
125536
154159
125349
93134.6
82998.2
78218.8
75535.7
73916.3
74018.3
97377.8
97945.5
99978.7
102403
106517
113046
125584
154241
125295
92997.8
82903.6
78139.8
75508.3
73843.6
73954.9
97438.9
98082.4
99491.8
102391
106730
113541
125822
154639
124934
92699.5
81586.6
76505.2
73780.6
73857.6
73902.8
97510.3
98184.3
99707.4
102349
106661
114409
127430
159933
118725
90359.7
79075.9
74220.3
73915
73841.3
73854.3
97558.4
98241.8
99775.8
102591
107436
114235
130477
160325
118324
85743.3
75563.5
74467.4
73933.5
73813.3
73808.2
97589.2
98282.4
99837
102682
107577
114319
130650
160586
118326
85582.9
75668.8
74518.4
73928.8
73787.3
73770.9
97594.5
98289.6
99845.9
102700
107597
114339
130742
160685
118175
85446.6
75641.2
74511.2
73910.5
73761.8
73741.9
93828.6
94248.8
95188.1
96928.4
99819.5
106501
113893
111487
31141.8
56814
61803.7
64978.8
67031.5
68337.4
68939.3
93771.1
94187.4
95120.6
96843.3
99738.4
106412
113812
111344
25833.1
55964.9
61487.3
64846.1
66977.6
68307.5
68918.1
93674.4
94075.5
94993.4
96720.9
99551.2
106215
113610
111118
24837.8
55479.1
61273.6
64777
66934.2
68279.3
68901.4
93543.7
93911.7
94794.1
96327.8
100728
105662
113187
110731
25246.8
55502.8
62508.2
64779.6
66913.7
68259
68892.6
93377.2
93701.5
94482
97361.2
100336
105888
113723
110119
25877.7
58921.4
64065.7
66044.4
66983
68272.3
68888.8
93194.6
93496.9
95518.7
97133
100684
105947
113187
109227
27951.5
59851.4
65259.1
66246
67999.2
68342.1
68884.7
93105.9
93396.8
95415.6
96962.1
100814
105674
112699
108221
32738.1
61247.2
65786.3
67243.9
67957.7
68361.3
68869.5
93041.2
93317.3
95325.7
97544.9
100701
105468
112299
107142
40540.5
62584.3
66075.7
67739.1
67967.3
68310.8
68788.5
93039.9
93325.7
95297.9
97495
100643
105370
112098
106620
41288
62194
65900.7
67620.4
67820.5
68184.6
68706.3
93077
93372.3
95334
96858.7
100643
105405
112175
106830
41275.5
61668
65576.5
66945.4
67653.2
68019.9
68575.9
93197
93514.2
94273.1
96999.6
100452
105564
112513
107706
40345
61310.9
65258.8
65744.5
66558.4
67837
68461.1
93312.3
93666.9
94516.7
96012.8
100188
104750
111965
108862
29366.4
58221.5
62305.3
64306.9
66382.2
67722.9
68361.5
93393.9
93783.7
94673.8
96346.2
99117.6
105382
112568
109551
26278
55549.7
60823.3
64206.7
66321.7
67660.5
68285
93447.1
93852.9
94762.4
96447.7
99280.5
105759
112931
110042
27099.7
55371.3
60857.1
64174.2
66289.8
67619.1
68232.3
93462.7
93872.9
94789.9
96490.6
99324.3
105871
113095
110319
25115.9
55157.8
60859.8
64165.7
66264
67587.7
68196.9
88894.9
88788.2
88549.7
88184.1
88091.6
92042.6
95737.9
109012
18497
36166.9
48413
55402.9
60030.5
62757.4
63988.6
88833
88721.8
88478.6
88106.9
88027.5
91956.8
95655.2
108786
6475.35
34934.4
48037
55275.5
59990.7
62741.9
63981.5
88730.3
88607.4
88353.6
88011.1
87902.3
91771.8
95463.3
108593
2972.94
34501.7
47987.4
55305.9
60010.9
62762.8
64000.9
88596.7
88441.5
88171.5
87951.9
90553.2
91599.1
95102.9
108296
2588.99
34598.7
47996.4
55590
60121.1
62833
64053.7
88441
88260.4
88042.5
89838.7
90437.3
93245.2
95932.3
108012
2330.92
34396.7
48660.3
56247.1
60335.4
62972.7
64135.6
88284.2
88172.1
89473.6
89639.4
91501.4
93832.7
95567.6
107287
3021.13
35203.3
49246.7
56401.5
60915.8
63084.1
64209.7
88207
88102.2
89301.5
89522.7
91993.7
93574.8
95217.4
106814
6896.22
36286.1
49574.2
56762.7
60925.2
63103.9
64213.9
88150.7
88039
89202
90393.8
91863.3
93392.5
94941.6
106252
15028
36672.6
49494.3
56837.4
60810.6
63019.3
64118.1
88149.3
88042.8
89176.8
90353.1
91810.6
93310.8
94804.1
105963
2296.23
35098.1
48818.4
56512.7
60603.3
62837.5
63981.4
88173.8
88054.8
89228.1
89456.7
91829
93349.3
94852.1
106095
2275.27
33934.3
48179.3
56018.8
60386.2
62615.4
63785.7
88278.3
88093.7
87853.5
89475.4
91306.9
93512.4
95072
106485
2268.24
34493.8
48215.4
55509.7
59628.7
62362.5
63581.4
88386.1
88223.7
87937.5
87678.4
90204.2
91238.4
94531.6
107220
8029.79
34936
47786.3
54823.5
59410.9
62154.9
63400.5
88473.4
88344.1
88075.2
87704.8
87546.6
91230.2
94639
107539
3365.16
34347.2
47405.6
54592.1
59262.7
62022.1
63271.3
88534
88416.2
88157.8
87759.6
87644.9
91398.5
94921.9
107875
4575.62
34162.2
47324
54499.9
59196.2
61947.7
63191.5
88554.7
88441.6
88189
87798.7
87673.1
91508.6
95070.1
108063
4577.05
34036.6
47350.7
54470.9
59157.3
61905.6
63145.8
83883.5
83191.1
81748.4
79427.1
78987.3
77659.4
80042.7
2286.22
28012.6
41362.1
49697.1
55483.4
58955.2
60572.1
83820
83123.5
81676.7
79355.1
78911.8
77580.1
79969.5
2300.34
26872.7
41118.4
49632.8
55467.9
58957.2
60579
83720.4
83020
81557.9
79234.3
78832.7
77467.8
79809.6
2293
26398.3
41187.5
49700.1
55528.8
59019.3
60628.9
83604.2
82893.3
81400.3
79247.1
78978.5
77276.7
79524.8
2292.51
26445.5
39960.6
50058.6
55702.8
59153.5
60727.1
83491.5
82771.3
81400
81236.9
79381
79199
80029.5
2581.34
24323
39565.7
49666.4
56004.2
59367
60865.4
83390.8
82788.7
82766.5
81353.5
80564
80013.6
79814.1
3558.37
24580.2
39443.9
49862.7
55801.9
59490.6
60990.8
83327.7
82730.6
82667.9
81351.4
81229
79910.8
79641.2
2294.2
24442.1
39406.1
49496.6
55862.3
59493.6
60995.1
83278.1
82685.9
82604.4
82131.4
81250.1
79816.7
79500.4
2216.22
23281.5
38729.9
49015
55680.2
59371.9
60876.2
83279.6
82682.6
82586.3
82117.1
81213.8
79761.5
79418.5
2265.48
20962.5
37257.6
48384.7
55362.7
59124.7
60687.9
83292.2
82684.5
82613.6
81289.5
81121
79752.7
79419.3
2447.96
15135
35847.7
48075.3
55012.4
58855.7
60441.1
83350.2
82631.6
81248.8
81039.2
80373.1
79774.9
79509.6
2250.1
19241.9
36686.7
48364.2
55038.6
58581.8
60166.5
83420.2
82708.3
81218.2
79046.5
78765.9
77100.6
78797
2299.96
25104.2
39287.9
49045.6
54814.8
58316.3
59933.4
83494
82793.8
81329.9
79003.9
78537.9
77085.5
79261.6
2289.91
25996.1
40495.8
48841.3
54639.8
58144.8
59771.3
83553.1
82856.7
81408.7
79080
78634.7
77213.1
79481.6
2298.19
26122.6
40391.2
48786.9
54580.5
58055.4
59677.1
83576.3
82884.2
81441.2
79114.4
78634.3
77268.8
79578.6
2295.49
26148
40428.6
48756.6
54542.6
58008.9
59626.7
79719.1
78490.1
75906.7
71371.1
68847.1
60844.6
56159.9
3198.56
2291.08
26231.7
39487.5
48202.6
54155.9
57730.9
59436.4
79647
78411.1
75813.7
71259.2
68747.1
60733.8
56083.1
2831.06
2297.99
26247.7
39399.4
48225.1
54163.8
57746.1
59449.9
79533.6
78290.6
75657.8
71043.3
68582.5
60522.6
55920.7
3159.49
2296.37
22270.2
39544.9
48307.5
54244.6
57822.4
59507.8
79404
78157.6
75430.3
70822
68349.9
60222.8
55776.7
2314.62
2301.55
22512.1
36849.7
48594.1
54426.4
57972.5
59613.4
79289.8
78014.5
75223.7
73621.9
67881.6
62982.3
57496.9
2333.54
2306.67
20671.5
35858.2
47088.7
54746.6
58220
59765.7
79193.5
77906.7
77048.9
73353.2
69742.2
64207
57462.5
3028.49
2337.21
20916.4
35455.8
47423.6
53785.2
58380
59908.8
79114.7
77817.8
76945.4
73129.2
70504.6
64133.2
57487.4
2383.86
2287.21
20509.8
35413.5
46604.1
53935.7
58399.8
59908.4
79062.8
77774.7
76873.4
74484.8
70434.3
64107.6
57428.6
7867.79
2326.34
18753.4
34421.9
45739.8
53781.1
58251.6
59765.5
79074.9
77780.7
76873.5
74490.5
70422.3
64099.8
57401.2
10645.9
2277.38
12601
31924.2
44786.5
53308
57920.2
59512.9
79110.5
77828.9
76949
73145.9
70476.5
64057.9
57320.1
2419.47
2283.81
2287.82
29623.7
44470
52720.2
57560.6
59205
79169.2
77900.4
75126.1
73461
69701.8
64078.8
57273.7
2763.21
2374.79
9731.16
31415.6
45331.5
53529.2
57228
58895.3
79245.9
78005.1
75296.8
70717.7
68041.6
59975.3
55487.1
2446.29
2567.42
21848.8
36034.9
47428.2
53342.9
56955.2
58660.2
79336.7
78102.6
75484.7
70897.3
68272.4
60253.4
55690.4
2680.42
2297.35
22580.1
38931.8
47332.7
53222.3
56806.5
58510.4
79411.7
78184.5
75605
71073.9
68501.5
60483.6
55869.8
2940.56
2297.89
26193.1
38778.9
47373.7
53203.2
56738.5
58429.4
79444.5
78224.3
75658.3
71144.5
68584.7
60590.2
55893.7
2319.4
2298.93
26246.7
38859.8
47362.9
53184.1
56701.1
58390.1
77238.6
75615.7
72156.6
66015.5
55351.4
44883.5
19309.3
2333.38
2302.89
29249.1
41992.5
50308.1
55867.8
59177.1
60750.3
77146.3
75511
72017.8
65838.2
55107.4
44647.1
19187.1
2291.87
2304.6
29138
41903
50323.1
55872.5
59188.9
60759.7
76995.6
75343.4
71795.8
65561.3
54677.3
44087.3
19006.5
2268.41
2302.61
23628.3
41874.9
50393.2
55940.3
59249.4
60807.7
76813.4
75157.4
71498.1
65214.4
58796.5
43513.7
18874.7
2262.48
2301.65
23755.6
37886.7
50613.6
56102.1
59372.6
60899.1
76643.2
74967.5
71263.5
67504.7
58513.4
47161.7
25225.2
2267.49
2293.14
20841.2
36550.4
48280.5
56456.9
59616.1
61033.5
76504.8
74795.1
72717.8
67288.8
60555.4
48967.3
26121.5
2282.11
2301.61
21388.6
36413.6
49050.2
54982.3
59837.1
61170.1
76392.6
74663.7
72640.7
67090.7
61417.7
49005.5
26527.1
2266.32
2305.5
21134.5
37582.5
48597.7
55398
59913.1
61168.6
76333
74610.1
72577.8
68423.3
61335.9
49108.8
26526.4
2345.57
2285.53
18760.4
37961
48195.5
55429.6
59749
60999.8
76357.7
74635.6
72587.7
68440
61366.7
49305.8
28020.2
2308.1
2296.25
3365.57
34663.4
46922.8
54748.3
59305.4
60670.9
76431.8
74734.8
72673.3
67165.9
61455.6
49060.9
26346.3
2250.08
2254.16
2273.31
30859.6
45648.1
53720.7
58806.4
60273.9
76536.8
74873.7
71207
67451.8
60593.3
48935
25878
2280.65
2252.85
11023
31279.3
46095.1
54898.9
58369.4
59946.2
76672.3
75031.2
71411
65193.7
58702.9
43522.9
20390.1
2270.29
2367.49
19919.7
36387
49118.6
54732
58142.7
59748.6
76818.2
75185
71675.7
65507.8
54718.4
43925.1
18942.6
2271.86
3966.75
23593.5
41082.2
49259.3
54748.2
58074.1
59654.9
76932.1
75315.2
71862.9
65742
55077.8
44458.8
19049.3
2291.96
2306.67
29011.9
41218.9
49380.9
54791.2
58060.7
59620.3
76985.9
75381
71960.3
65871.2
55255.1
44779.2
19098.7
2288.24
2310.16
29158.1
41381.2
49428.6
54811.7
58049.5
59598.7
77074.2
75439.8
71927.9
65809.1
55230
42607.6
8089.21
2306.78
10825.8
37727
48638.3
55696.9
60287.4
62949.8
64211.9
76955.8
75302.6
71733
65517.9
54915.2
41832.4
7158.35
2255.03
12783.3
37697.1
48554.4
55671.3
60260.1
62942.4
64205.6
76760.5
75077.4
71417.1
65073.5
54692.3
40416.9
8078.09
2250.65
3498.59
29185.1
48451.9
55672.2
60268.2
62964.7
64223.7
76522.1
74822
71062.9
64651.8
56211
39168.9
8866.69
2290.44
2303.48
28873.3
43268.9
55844
60363.4
63035.2
64275.2
76294.6
74578.1
70810.7
65651.5
55553.4
41210.9
18399.3
2278.8
2300.22
24601
41373.1
52902.1
60714.1
63238.2
64371.9
76108.3
74378
71369.4
65261.8
56652
42179
18946.4
2307.34
2312.27
25934.4
41974.6
54172.3
58925.3
63497.2
64488.4
75959.3
74200.5
71215.2
64983.6
57086.1
42078.8
20551.7
2250.93
2269.09
29509.5
47709.1
55177.1
59662.5
63607.2
64479.9
75890
74127.6
71138.5
65844.1
56931.7
42121.2
19478.8
2284.61
2234.95
39014.8
60151.8
57417.6
59980.7
63417.4
64288.7
75921.7
74171.9
71167.2
65872.6
57006.9
42453
22024.2
2318.72
2186.85
27530
55792.6
55579.4
59044.9
62866.1
63901
76030.6
74317.6
71281.4
65159.6
57225.2
42345.4
19636.3
2287.78
2258
13951.6
40031.6
51131
57536.3
62262.6
63466.3
76183.2
74484.8
70772.3
65559.1
56869.6
42449.3
18841.6
2277.38
2256.22
17244.7
36011.2
50355.3
58846.6
61785.3
63123.5
76376.3
74700.2
71000.5
64705.9
56069.8
39661.2
18060.5
2277.62
2304.02
22893.8
40924.5
53907.6
58726.6
61621.3
62967.2
76580.3
74924.7
71326.7
65100.4
54899.5
40127.2
8871.84
2296.22
9494.54
29023.6
47291.6
54287.8
58886.8
61635.2
62931.9
76740.2
75113.9
71606.7
65502.7
54972.6
42233.3
7310.1
2252.44
15882.4
37866.3
47808.6
54576.9
59028.1
61681.6
62942.1
76820.7
75212.8
71760.1
65746.2
55171.9
43005.2
7089.56
2231.13
13628.4
37858.5
48020.8
54708.3
59106.2
61704.3
62945.1
79405
78253
75821.1
71941.9
63968.2
54638.3
26332
2325.2
39865
55440
59893
64283.1
66992.3
68556.8
69326.4
79262.3
78079.5
75562.4
71458.7
63182
53341.7
19096.4
2323.06
37927.7
54606.9
59655.1
64158
66914.5
68520.2
69297.3
79025.5
77793.7
75146.3
70664.8
63995.3
49467.4
18919.9
2628.91
18968.8
43622.8
59630.1
63986.1
66824.2
68487.5
69271.8
78735.2
77445.1
74617.8
69899.3
62038.6
47094.6
17797.1
2298.45
9588.88
41320.7
53467.9
63950.8
66757.8
68468.8
69258.5
78451.6
77102.5
74188.6
69101.4
60370.6
45970.5
21483.7
2307.18
6894.54
33804.5
50506.2
60351.7
66946.9
68548
69277.6
78211.6
76846
73655.7
68199.4
59603.4
44849.2
20089
2289.85
9433.99
34508.5
50384.8
61114
64631
68697.2
69313.6
78018.5
76606.4
73272.1
67655.1
59070.1
43757.8
19378.3
2294.2
2305.82
42269.5
58153.1
61899.6
65105.5
68689.4
69237.6
77933.3
76506.3
73126.1
67721.9
58656.1
43346.6
19462.3
2279.26
17952.1
75504.7
96187
65696.6
65179
68429.6
69007.8
77966.8
76561
73170.2
67761.3
58759.6
43632.6
18688.1
2300.14
2914.96
48145.8
75540.6
63007.3
64213.5
67906.3
68619.8
78107.7
76756.2
73376.4
67951.9
59311.3
44490.4
21188.9
2319.58
2261.02
24211.6
47811.8
57297.3
62935.6
67393.8
68235.1
78306.4
76973.7
74110.4
68648.2
60091
45780.7
22873.9
2297.31
2274.33
25217.3
43788.4
57260.7
64902.6
66995
67949.1
78553.3
77288.4
74528.6
69953.3
61425.7
47306.3
22684.7
2436.06
2304.33
32485.7
50161.8
61709.9
64960.1
66948
67863.4
78810
77609.1
75038.6
70726.7
64370.2
49142.3
19160.3
2381.05
19158.6
41744.7
58086.7
62376.4
65294.9
67050.7
67889.5
79013.1
77863.2
75425.1
71503.4
63406.4
54251.6
20902.5
2324.7
38729
54123.1
58670.6
62882.6
65549.9
67153.3
67939.7
79119
78000.5
75645.8
71951.1
64037.7
55503.2
26534.3
2328.79
39675
54869.7
59050.1
63127.6
65686.3
67208.3
67965.6
83675.5
83350.7
82764.6
83043.4
83341.6
90956.3
133970
124490
97659.3
80710.6
75564.2
75297.2
75149.6
75285.1
75436.2
83520.1
83148.3
82464.1
82421.9
82163.9
89810.7
131595
115438
93760.4
79466.5
75021.3
75011.8
75009.7
75217
75385.6
83258.1
82807.9
81970.2
80878.9
80922.4
75029.7
86919.5
72890.1
71027.6
69474.3
74238.6
74451.1
74808.7
75124.5
75316.4
82932.1
82382.9
81248
79697.4
74861.7
69253.5
60042
20038.9
39069.5
65611.6
68872
73925.5
74536.2
75002.3
75228.3
82609.8
81959.4
80653.6
76800.3
72512.8
62985.4
40813.7
2275.25
22343.1
54194.8
64784.3
70365.9
74398.4
74907.4
75147
82334.5
81638.1
78833.5
75598.2
69422.3
58270.2
33463.2
2224.41
20592.9
50478.1
61641.5
69770.7
71748.6
74810.8
75059.1
82108.8
81356
78278
74843.7
67627.3
55144.2
28412.7
2260.02
9696.87
41029
58012.6
66962.1
71349.1
74601.3
74873.4
82004.8
81229.8
78065.2
73904.9
66785.7
53715.3
28224.4
2294.69
2322.69
2283.45
41879.5
64611.2
70781.1
74278.6
74608.9
82028.7
81273.7
78099.9
73939.5
66864.9
53938.1
27349.2
2287.29
2293.05
2297.31
41589.4
63083.2
70144.2
73896.5
74287.2
82178.5
81481.5
78366.8
75121.7
67803.3
55901.9
31022.6
2286.99
2301.37
29709.5
51499.8
63783.3
69671.3
73595.4
74019.4
82395.4
81742.7
80436.4
75938.4
69881.9
59206.6
35602.4
2355.09
7895.44
40699.8
55532.8
66679.2
72431.6
73366.3
73824.2
82673.7
82134.5
81031.1
79558.7
73659.4
68313.4
48225.8
8522.04
24564.4
53453.5
64612.5
71647
72697.9
73472.6
73819.2
82965.9
82537.6
81759.4
80830.4
81224.2
73133.4
80734.6
76130.6
73159.3
66499.9
72368.6
72686
73208
73649.1
73906.1
83196.5
82855.3
82240.9
82431.5
82488.3
90828.3
136530
117711
94670.5
78704.3
73727.5
73556.9
73549.7
73792.3
73984.5
83317.2
83026.7
82511.6
83060.5
83527.4
92214
138611
127735
98550.6
80268.4
74486.2
73968.8
73738
73870.3
74024.1
88702.1
89162.9
90101.7
93273.4
99120.7
104300
132006
140504
114161
97360.7
89616.2
85623.2
83151
82107.6
81696.6
88567.7
88984
89889.2
92950.2
98480
104566
133481
142439
114489
97123.2
89266.5
85380.8
83031
82035.1
81643.1
88330.4
88639.9
89508.8
91422.3
96565.3
100501
121489
147636
117448
96325.3
88156.8
84731.9
82819.4
81917
81563.2
88023.5
88230.4
88785.2
90249.4
90741.1
98189.1
119797
155308
119339
94300.3
85827.3
83896.8
82465.4
81742.4
81429.7
87715.3
87815
88102.6
86791.9
88141.7
89999.9
101110
183187
105490
87376.9
82777.9
81607.8
82116.1
81549.4
81295.7
87457
87411.2
85790.4
85555
84058.3
82915
83905.4
83878.7
89397.6
82528.2
79584.8
80741.7
80120
81299.3
81139.3
87234.9
87124.6
85288.4
84692.7
81199
77917.5
65862.7
2301.46
73416.3
73119.1
75308
77950.2
79616.8
81026.6
80919.6
87121.4
86990.7
85055.3
83020.9
80148.2
74984.6
58744.6
7267.17
3801.49
40251.1
66705.3
74754.5
78987.9
80734.6
80672.7
87117.9
86995.6
85049.8
83007.2
80137.2
75049
57288.6
2325.29
48974
30658.8
64581.7
73706
78509.5
80456.2
80416
87231.8
87165.5
85259.1
84737.9
81068.2
78047.5
67016.9
2171.43
2533.36
59493.6
69828.1
75493.3
78278.8
80268.7
80220.2
87405.6
87472.6
87687.2
85622.6
83896.7
82445.6
84265.9
122885
66087.3
71004.6
73621
78162.4
80432.4
80194.2
80084.3
87654.9
87838.2
88331.8
89671.7
88868.8
94049.1
103538
139719
95855.5
83021.2
81109.8
81695.6
80720.4
80275.1
80085.1
87923.3
88226
89073.9
90974.7
95949.9
98716.1
117936
141997
111165
92396.1
85865.8
82839.6
81182.9
80440.1
80158
88129.9
88556.6
89461.4
92648.6
98335
104370
134450
145794
113760
95699.2
87670.3
83806.8
81512.3
80586.7
80231.4
88230.3
88710.1
89651.5
93031.1
98971.1
104309
133056
142513
114450
96607
88294.7
84187.8
81680.3
80661.4
80267.5
93160.5
93922.4
95218.1
97645.7
103014
102502
106522
112083
105132
100694
96121.7
92144.8
89352.6
87923.3
87237.3
93097.4
93850.7
95206.1
97935.9
103295
103869
109142
116415
107319
101434
96408.2
92214.8
89356.4
87900.3
87213.5
92971.9
93651.7
95196.7
97778.7
102565
105592
112008
122884
111291
102971
96176.2
92098.6
89338.3
87849
87176.4
92781.6
93423.7
94871
97805
99871.8
107499
119500
133283
120776
104506
96351.1
91923.7
89222
87759
87105.1
92559.5
93132.7
94482.1
95248.4
99496.1
106298
122402
146170
127461
106889
96231.4
91147.9
89068.2
87628.2
87006.9
92341.6
92732.3
92715.3
94468.2
96914.1
103860
123936
170108
130899
107959
96229.1
91070.3
88147.1
87378.3
86874
92161.2
92498.3
92421.6
93898.8
95159.6
101630
118322
166340
118032
113578
96974.1
90445
87943.5
87180.4
86707.1
92056.7
92377
92209.9
92613
94394.8
99770.2
111996
154111
82054.8
123776
97551.8
89714.3
87556.4
86940.3
86505.5
92013.2
92334.6
92152.2
92523
94289.9
99859.7
114133
170588
164791
116427
95766.3
88951.1
87158.5
86681.7
86269.5
92055.5
92415.4
92218.6
93636.5
94697.4
101096
119056
184937
132048
103841
93014.2
88462.3
86825.6
86477.6
86063.9
92157.5
92671.9
93871.4
94166
96099.8
101961
117981
146037
119643
100592
91926.5
88669
87491.9
86403.3
85909.4
92299.4
92885.7
94189.2
96825
98321.2
105380
116182
133922
118007
100799
92998.8
89876.6
87590.8
86394
85849.4
92438.8
93077.9
94509.6
96917.1
101268
104599
112457
123914
109892
100481
93969.4
90253.8
87759.6
86438.9
85842.1
92526.8
93259.9
94517.6
97192.4
102353
102430
106626
114673
104869
99584.6
94649.3
90606.2
87845.7
86486.5
85844.9
92551.9
93304.8
94495
96949.3
102075
101087
104109
110218
103682
99113
94524.9
90635.6
87864.3
86496.2
85838.8
96383.8
97009
98055.6
98848.6
102106
101640
101207
103799
100659
100297
97821.8
95341.2
93394.4
92205.6
91552.2
96406.3
97065
98171.2
99410.8
102808
102795
103088
106036
102758
101360
98507.7
95665
93532
92260.1
91581
96438.5
97083.7
98442.2
100214
103426
105256