/*--------------------------------*- C++ -*----------------------------------*\
| =========                 |                                                 |
| \\      /  F ield         | OpenFOAM: The Open Source CFD Toolbox           |
|  \\    /   O peration     | Version:  v2012                                 |
|   \\  /    A nd           | Website:  www.openfoam.com                      |
|    \\/     M anipulation  |                                                 |
\*---------------------------------------------------------------------------*/
FoamFile
{
    version     2.0;
    format      ascii;
    class       volScalarField;
    location    "0.031";
    object      p_rgh;
}
// * * * * * * * * * * * * * * * * * * * * * * * * * * * * * * * * * * * * * //

dimensions      [1 -1 -2 0 0 0 0];


internalField   nonuniform List<scalar> 
449343
(
105511
105644
105867
106086
106183
105944
105175
103803
101880
99616.5
97302.2
95209.8
93528.1
92364.7
91772.6
105509
105642
105866
106084
106180
105941
105171
103800
101880
99618.8
97306.4
95214.2
93531.7
92367.4
91774.7
105505
105639
105862
106080
106176
105934
105163
103793
101878
99622.8
97314.6
95223
93538.9
92372.6
91778.8
105500
105634
105858
106075
106169
105922
105150
103782
101874
99627.6
97326.5
95236
93549.1
92379.8
91784.2
105493
105628
105853
106069
106160
105908
105135
103769
101870
99633.6
97341.1
95251.7
93561.1
92387.6
91789.6
105486
105622
105846
106062
106151
105894
105120
103759
101867
99641.8
97356.4
95267.2
93572
92393.8
91793.2
105479
105614
105839
106054
106140
105882
105108
103748
101864
99648.2
97365.2
95277.4
93577.7
92395.2
91792.3
105469
105605
105830
106045
106129
105871
105094
103735
101854
99644.9
97364.6
95275.7
93573.3
92388.7
91784.6
105459
105595
105819
106033
106119
105862
105089
103731
101848
99633.1
97348.6
95258.8
93557.1
92373.1
91769.4
105449
105584
105807
106021
106109
105853
105081
103722
101832
99607.7
97320
95228.3
93530.1
92349.4
91747.4
105439
105573
105795
106010
106099
105847
105075
103712
101814
99579.2
97284.8
95192.2
93498
92321.4
91721.7
105431
105564
105785
106000
106090
105843
105072
103705
101798
99552.6
97249.8
95156
93465.5
92293.1
91695.7
105425
105557
105777
105992
106083
105840
105068
103699
101784
99529.1
97219.3
95124.7
93437.3
92268.2
91672.8
105421
105552
105772
105986
106078
105836
105064
103692
101772
99510.6
97196.7
95101.9
93416.7
92250
91656
105418
105550
105769
105983
106075
105833
105061
103688
101765
99500.4
97184.7
95090
93405.9
92240.4
91647
105366
105547
105869
106239
106514
106497
105862
104426
102251
99650.1
97040.5
94753.1
92964.7
91750.3
91138.6
105364
105545
105867
106238
106512
106493
105857
104423
102251
99653.9
97046.2
94758.1
92968.3
91752.7
91140.3
105359
105541
105864
106235
106508
106485
105846
104414
102249
99661.4
97058.8
94769.2
92975.7
91757.4
91143.7
105353
105536
105861
106232
106502
106469
105825
104393
102241
99670.5
97078.3
94786.7
92987.2
91764.1
91148.2
105347
105530
105856
106228
106495
106446
105802
104374
102223
99682.8
97105.4
94810
93001.5
91771.9
91152.9
105339
105524
105852
106225
106488
106432
105780
104360
102227
99700
97135.3
94835.7
93016
91778.5
91155.9
105331
105516
105846
106219
106476
106423
105768
104354
102229
99719.3
97168.1
94857.3
93025
91780.7
91154.7
105321
105507
105836
106210
106465
106411
105751
104287
102215
99717.2
97173.2
94858.9
93021.4
91774.2
91146.5
105311
105496
105825
106197
106453
106402
105748
104335
102217
99705.5
97153.1
94839.4
93004.7
91757.7
91130.4
105300
105484
105811
106182
106445
106387
105738
104323
102194
99669
97101.2
94798
92972.8
91731.7
91107.3
105291
105473
105797
106166
106430
106380
105737
104315
102171
99631.6
97051
94750.6
92936.1
91702.1
91080.7
105283
105463
105785
106153
106418
106385
105741
104313
102165
99595.5
97000.6
94704.3
92899.4
91672
91053.8
105277
105457
105776
106143
106410
106384
105743
104313
102151
99564.1
96959.4
94665.8
92867.9
91645.9
91030.2
105274
105452
105770
106136
106403
106379
105740
104306
102136
99538.8
96929.6
94638.6
92845.3
91626.8
91012.9
105272
105450
105768
106133
106399
106377
105738
104302
102127
99525.7
96914.7
94624.8
92833.6
91616.9
91003.8
104995
105283
105831
106561
107301
107842
107616
106019
103168
99682
96347.8
93618.7
91599.6
90277.6
89625.8
104992
105280
105829
106560
107300
107839
107609
106014
103169
99689.1
96356.3
93624.5
91602.6
90279
89626.4
104986
105275
105826
106560
107301
107833
107591
106004
103167
99707.8
96379.7
93639.4
91609.8
90282.1
89627.9
104977
105269
105823
106561
107301
107810
107541
105975
103135
99730.1
96422
93667.3
91622.5
90287.4
89630.3
104968
105262
105822
106564
107300
107768
107451
105879
103074
99777.5
96480.1
93705.9
91640.9
90294.3
89632.8
104959
105256
105822
106568
107306
107735
107405
105863
103089
99828.9
96560.7
93753.8
91661
90300.9
89633.9
104949
105248
105817
106573
107289
107732
107387
105856
103102
99864.2
96695.9
93801.1
91679
90303.7
89631.1
104938
105239
105808
106566
107284
107731
107394
105834
103094
99866.3
96707.2
93807
91676.3
90296.6
89621.4
104927
105226
105793
106548
107263
107706
107364
105839
103096
99853.5
96686.5
93784.1
91656.9
90277.4
89602.9
104917
105213
105777
106520
107257
107680
107359
105830
103069
99804.8
96535.2
93718.8
91614.2
90247.9
89577.7
104908
105201
105756
106495
107226
107686
107375
105817
103029
99731.4
96429.2
93645.1
91568.8
90214.5
89549.2
104903
105191
105740
106473
107208
107710
107446
105890
103060
99654.6
96341.9
93577.7
91523.2
90181.2
89520.6
104899
105185
105730
106458
107191
107710
107469
105888
103058
99601.1
96269.6
93522.5
91485.5
90152.5
89495.6
104897
105182
105724
106448
107178
107703
107470
105878
103036
99557
96222.2
93486.1
91459.3
90132
89477.5
104896
105181
105721
106443
107173
107699
107469
105872
103023
99536.4
96200.7
93468.6
91446.1
90121.4
89468
104270
104714
105600
106909
108509
110101
111046
109135
104798
99453.7
94892.8
91554.3
89266.9
87841
87159.3
104264
104709
105597
106908
108510
110098
111029
109127
104796
99462.1
94902
91558
89267.3
87840.2
87158.1
104253
104700
105593
106912
108520
110103
111013
109130
104818
99515.6
94939.9
91572.7
89270.6
87839.8
87156.4
104239
104689
105590
106923
108534
110111
110803
109120
104723
99626.6
95030
91607.1
89279.8
87840.5
87154.5
104224
104679
105592
106937
108560
110032
110010
108789
105479
99817.5
95162.9
91670.1
89296.6
87842.7
87152.2
104210
104671
105604
106989
108619
109233
109866
108755
105554
101068
95352.6
91749.7
89319.7
87843.6
87148.3
104196
104663
105606
107005
107964
109259
109820
108722
105552
101131
96644.1
91813.1
89339.1
87843.9
87141.3
104183
104653
105600
107000
107951
109266
109833
108627
105553
101155
96640.6
91818.4
89341
87836.9
87127.4
104173
104638
105576
106974
107931
109235
109794
108688
105554
101147
96635.5
91794.8
89311.2
87812.2
87107.1
104166
104624
105553
106933
108557
109179
109785
108699
105533
101110
95354.1
91720.2
89270.2
87782.1
87080.8
104159
104611
105516
106853
108470
109919
109908
108723
105506
99782.7
95124.6
91607.9
89214.5
87747.8
87051.5
104159
104605
105497
106820
108421
109983
110678
109016
104658
99563.8
94953.6
91508.8
89163.2
87712.9
87021.8
104161
104603
105485
106793
108387
109945
110855
108990
104694
99397.6
94816.2
91435.7
89121.5
87683
86995.9
104163
104603
105480
106779
108366
109926
110854
108962
104637
99304.6
94741.4
91390.6
89093.3
87661.6
86977.2
104164
104603
105479
106775
108359
109921
110863
108954
104618
99273.3
94711.5
91370.2
89079.4
87650.7
86967.4
102992
103606
104884
106922
109790
113381
117262
114581
107266
98217.9
91978.8
88162.3
85775.1
84377
83738
102982
103597
104876
106918
109791
113381
117233
114569
107257
98221.6
91978.9
88155.7
85768.5
84372.1
83734.1
102963
103580
104864
106921
109818
113414
117225
114566
107328
98292
92013.5
88153
85759.3
84364.3
83727
102937
103558
104854
106957
109942
113548
114853
114619
108882
98742.4
92191.5
88182
85751.1
84354.4
83717.7
102908
103533
104851
106988
109999
112018
114787
114522
108997
101058
92406.7
88226.9
85750.1
84342.7
83706.1
102881
103519
104878
107160
109102
112161
114764
114380
108964
101372
94652.9
88358.8
85737.3
84332.3
83692
102856
103493
104854
106553
109141
112218
113811
113695
109322
102413
94915.2
90210.9
85700.1
84305.2
83673.2
102842
103484
104899
106530
109154
112223
113807
113676
109379
102516
95033.7
90280.6
85787.5
84287.7
83657.4
102829
103463
104814
106500
109122
112192
113764
113676
109362
102526
95015.5
90262.4
85659.2
84263
83629.1
102834
103469
104820
107089
109022
112081
113803
113678
109331
101517
94792.3
88330.7
85686.1
84256.6
83607.5
102838
103457
104762
106881
109878
111928
114626
114331
108937
101277
92411.9
88168.1
85651.3
84224.2
83579.9
102852
103467
104749
106831
109789
113372
114673
114482
108955
98736.9
92133.5
88071.6
85608.8
84195.8
83552.1
102865
103475
104744
106777
109645
113207
117009
114430
107186
98167.6
91871.6
87985.2
85574
84169
83527.2
102876
103483
104746
106766
109609
113161
117008
114378
107064
98031.7
91780.2
87945.9
85550.8
84149.6
83509.2
102882
103489
104750
106766
109604
113152
117025
114364
107029
97976.4
91743.2
87927.6
85539.2
84139.8
83500
100920
101655
103244
105978
110354
117258
122883
128293
114709
93685.8
86424.9
82907.7
80883.9
79828.2
79385
100902
101636
103226
105964
110351
117253
122860
128251
114643
93614.6
86384
82874.7
80864.7
79817.6
79377.8
100868
101603
103194
105932
110341
117272
122816
128185
114552
93534.2
86310.2
82804.7
80830.3
79798.8
79364.8
100821
101559
103160
105948
110656
115036
122832
128219
114523
98009.4
86398
82692.9
80779.5
79773.3
79346.6
100764
101496
103094
105959
109399
115243
123031
125738
115883
98767.5
89687.5
82609.2
80678.8
79728.6
79322.4
100714
101436
103104
105525
109445
114243
121184
124608
115939
101192
89943.3
85032.8
80578.9
79671.1
79292.3
100666
101372
103062
105522
109527
114211
120198
124541
116514
102314
91776.5
85135.9
80483.8
79605.5
79255.6
100638
101329
103061
105554
108869
113669
120140
124488
116595
102497
91873.8
85197.9
82402.3
79555.7
79227.7
100638
101341
103023
105504
108833
114094
120094
124466
116642
102567
91897
85145.8
80433.6
79547.6
79196.3
100665
101381
103033
105408
109412
114113
120053
124494
116660
102532
91869.1
85105.1
80503.2
79565.5
79180
100691
101413
102992
105827
109210
115082
120905
125494
116100
101287
89962.3
82548.9
80549.4
79572.5
79156.9
100733
101464
103046
105795
110446
114818
122599
128028
114567
98320.1
86361.1
82558.1
80595.1
79567.7
79133
100767
101491
103061
105766
110122
116987
122531
127938
114464
93436.8
86138.4
82590.1
80591.6
79548.2
79110
100794
101520
103089
105793
110131
116976
122543
127956
114408
93381.9
86129.4
82604.4
80586.2
79534.9
79093.7
100808
101534
103102
105803
110131
116978
122580
127971
114371
93320.3
86099.4
82597.2
80580.8
79527.7
79085.2
97838.2
98544.3
100126
103019
107981
114814
131331
161369
118974
86226.7
76247.6
75061.2
74437.3
74279.9
74256.3
97809.9
98513.8
100091
102980
107942
114782
131274
161289
118621
85960.3
76113.5
74984.5
74404
74265
74248.3
97753.8
98449.6
100014
102868
107783
114694
131103
161128
118331
85729.9
75891.9
74851.9
74346.8
74237.1
74234.1
97674.7
98360.3
99905.3
102599
107103
114960
131001
160851
118060
85737.3
79142.9
74497.4
74252
74196.4
74214.2
97569
98224.4
99661.5
102601
107033
113968
127893
160509
119034
89725
78917.8
76640.5
74030.5
74130.4
74184.8
97463.9
98038.1
100082
102591
106700
113799
126277
155242
123992
91962.3
81301.3
76597.6
75668.2
74047.5
74151.1
97396.2
97958.1
100036
102524
106636
113255
125938
154789
124440
92469
82776.8
78180.4
75596.2
74024.6
74119.8
97346.9
97906.2
100061
102502
106566
113112
125674
154405
125219
93015.3
82968.3
78235.7
75625.4
73993.8
74059.6
97368.8
97926.9
100003
102501
106550
113048
125547
154170
125360
93145.7
83009.3
78231.1
75550.4
73936
74037.9
97417
97984.8
100013
102438
106549
113077
125615
154271
125326
93028.5
82934.2
78171.7
75542.6
73882.8
73994.2
97497.7
98141.3
99550.6
102445
106784
113593
125873
154689
124984
92749.7
81638.1
76559.1
73839.4
73916.4
73961.7
97588.8
98262.8
99785.9
102427
106735
114483
127501
160004
118796
90430.8
79149.4
74298.8
73993.5
73919.8
73932.8
97656.5
98339.9
99873.9
102689
107534
114328
130570
160416
118415
85836.5
75661.6
74565.5
74031.6
73911.4
73906.3
97706.9
98400.2
99954.7
102800
107695
114431
130763
160696
118436
85695.7
75786.5
74636.1
74046.5
73905
73888.7
97731.9
98426.9
99983.3
102837
107734
114472
130874
160815
118305
85579
75778.5
74648.6
74047.8
73899.1
73879.3
93691.2
94111.5
95050.8
96791
99682.1
106359
113748
111341
30995.9
56671.7
61666.3
64841.4
66894.1
68200.1
68802
93653.4
94069.7
95002.9
96725.6
99620.7
106290
113687
111218
25706.8
55842.2
61369.5
64728.4
66859.9
68189.7
68800.4
93576.3
93977.4
94895.3
96622.8
99453.1
106112
113505
111011
24731.1
55376.1
61175.5
64678.9
66836.1
68181.2
68803.3
93465.3
93833.2
94715.6
96249.3
100645
105578
113101
110644
25159.8
55419.4
62424.8
64701.1
66835.2
68180.5
68814.1
93318.4
93642.6
94423.1
97297.5
100272
105822
113656
110051
25810.2
58853.9
63999.5
65980.6
66924.1
68213.5
68829.9
93155.3
93457.7
95474.5
97088.9
100637
105899
113139
109179
27903.7
59803.5
65211.3
66201.9
67955.1
68302.8
68845.4
93086.3
93377.2
95391.1
96937.6
100786
105646
112671
108192
32709.9
61219
65758.1
67216.9
67933.1
68341.6
68849.9
93041.2
93317.3
95320.8
97537.5
100693
105459
112290
107134
40531.9
62575.7
66067.1
67730.6
67962.4
68310.8
68788.5
93059.5
93345.3
95312.6
97507.3
100654
105381
112109
106631
41299
62205
65911.7
67631.4
67835.2
68204.2
68725.9
93116.2
93411.5
95368.3
96893
100673
105436
112206
106861
41306.2
61698.7
65607.1
66977.2
67687.6
68059.1
68615.1
93255.9
93573
94331.9
97053.5
100503
105614
112563
107756
40395.3
61361.2
65309.1
65798.4
66617.2
67895.9
68520
93390.8
93745.4
94595.1
96091.3
100262
104824
112036
108932
29436.3
58292.6
62378.9
64385.4
66460.7
67801.4
68439.9
93492
93881.8
94771.9
96444.3
99215.7
105475
112659
109640
26367.5
55642.9
60921.4
64304.8
66419.8
67758.6
68383.1
93564.9
93970.6
94880.1
96565.5
99398.2
105872
113041
110151
27208.8
55484.1
60974.8
64291.9
66407.6
67736.8
68350
93600
94010.2
94927.3
96628
99461.6
106004
113225
110447
25244.7
55290.2
60997.1
64303.1
66401.3
67725.1
68334.3
88757.6
88650.8
88412.3
88046.7
87954.3
91900.4
95593.2
108865
18351.1
36024.6
48275.7
55265.6
59893.1
62620
63851.3
88715.3
88604.1
88360.8
87989.2
87909.8
91834.1
95530.1
108659
6349.05
34811.8
47919.3
55157.8
59873
62624.2
63863.8
88632.2
88509.3
88255.5
87913
87804.2
91668.8
95357.9
108486
2866.51
34398.7
47889.3
55207.8
59912.8
62664.7
63902.8
88518.2
88363
88093.1
87873.4
90469.8
91515.7
95017
108209
2502.34
34515.3
47913
55511.5
60042.6
62754.5
63975.2
88382.1
88201.6
87983.7
89775
90373.6
93179
95864.9
107944
2265.14
34329.2
48594.1
56183.4
60276.5
62913.8
64076.8
88245
88132.8
89429.5
89595.2
91454.8
93784.8
95519.8
107239
2973.31
35155.5
49198.8
56357.4
60871.7
63044.9
64170.5
88187.4
88082.6
89276.9
89498.1
91965.5
93546.6
95189.2
106785
6868.01
36257.9
49546
56735.7
60900.7
63084.3
64194.2
88150.7
88039
89197.1
90386.4
91854.7
93383.9
94933
106242
15019.4
36664
49485.8
56828.8
60805.7
63019.3
64118.1
88169
88062.4
89191.6
90365.4
91821.7
93321.8
94815.1
105974
2304
35109.2
48829.5
56523.7
60618
62857.1
64001
88213
88094.1
89262.4
89491.1
91859.6
93379.9
94882.7
106125
2292.37
33965
48209.9
56050.7
60420.5
62654.7
63825
88337.2
88152.5
87912.4
89529.4
91358.4
93562.6
95122.2
106535
2313.13
34544.1
48265.7
55563.6
59687.6
62421.4
63640.3
88464.6
88302.1
88016
87756.9
90277.7
91312
94602.7
107290
8099.66
35007.1
47859.9
54902
59489.4
62233.4
63479
88571.5
88442.2
88173.3
87802.9
87644.7
91323.4
94729.8
107628
3454.64
34440.4
47503.7
54690.2
59360.8
62120.2
63369.4
88651.7
88533.9
88275.5
87877.3
87762.6
91511.3
95032.3
107983
4684.76
34275
47441.7
54617.6
59313.9
62065.4
63309.3
88692.1
88579
88326.4
87936.1
87810.4
91641.1
95200.1
108191
4705.78
34169
47488
54608.2
59294.6
62043
63283.1
83746.1
83053.8
81611
79289.8
78845.1
77517.2
79898
2145.14
27870.3
41224.8
49559.7
55346
58817.9
60434.7
83702.3
83005.8
81559
79237.4
78789.2
77457.5
79844.5
2185.22
26750
41000.7
49515.1
55350.2
58839.5
60461.3
83622.3
82921.9
81459.8
79136.2
78729.7
77364.8
79704.1
2209.2
26295.3
41089.4
49602
55430.7
58921.2
60530.8
83525.7
82814.8
81321.8
79168.6
78895.1
77193.3
79439
2228.73
26362.1
39877.2
49980.2
55624.3
59075
60648.6
83432.7
82712.4
81341.1
81173.1
79317.3
79132.8
79962
2516.49
24255.6
39499.5
49602.6
55945.4
59308.2
60806.5
83351.5
82749.4
82722.4
81309.3
80517.4
79965.7
79766.3
3510.54
24532.4
39396.1
49818.5
55757.7
59451.4
60951.6
83308
82711
82643.4
81326.9
81200.8
79882.6
79612.9
2271.06
24413.9
39377.9
49469.6
55837.7
59474
60975.5
83278.1
82685.9
82599.5
82124
81241.5
79808.1
79491.8
2215.9
23272.9
38721.4
49006.4
55675.3
59371.9
60876.2
83299.3
82702.3
82601
82129.4
81224.9
79772.5
79429.6
2265.86
20973.6
37268.7
48395.7
55377.4
59144.4
60707.6
83331.4
82723.8
82647.9
81323.8
81151.7
79783.3
79450
2472.18
15165.6
35878.4
48107.2
55046.8
58894.9
60480.3
83409.1
82690.5
81307.7
81093.2
80424.6
79825.2
79559.9
2279.39
19292.2
36737
48418.2
55097.4
58640.7
60225.4
83498.7
82786.7
81296.6
79125
78839.5
77174.2
78868.2
2369.21
25175.3
39361.5
49124.1
54893.2
58394.8
60011.8
83592.1
82891.9
81428
79102
78631.1
77178.7
79352.3
2362.22
26089.3
40593.9
48939.4
54737.9
58242.9
59869.4
83670.8
82974.4
81526.5
79197.7
78747.6
77325.9
79591.9
2400.66
26235.4
40508.9
48904.6
54698.2
58173.1
59794.8
83713.6
83021.5
81578.5
79251.8
78766.7
77401.2
79708.5
2401.55
26280.5
40566
48893.9
54680
58146.3
59764
79581.7
78352.7
75769.4
71233.7
68704.8
60702.4
56015.2
3052.01
2169.02
26094.4
39350.2
48065.3
54018.5
57593.6
59299.1
79529.2
78293.4
75696
71141.5
68624.5
60611.2
55958
2714.41
2189.39
26129.9
39281.7
48107.3
54046.1
57628.4
59332.1
79435.5
78192.5
75559.7
70945.2
68479.5
60419.6
55815.3
3065.57
2212.01
22167.2
39446.8
48209.4
54146.5
57724.3
59409.7
79325.6
78079.1
75351.8
70743.5
68266.5
60139.4
55690.9
2310.94
2246.04
22428.7
36766.3
48515.7
54347.9
57894
59534.9
79230.9
77955.7
75164.8
73558.2
67817.8
62916.1
57429.5
2322.49
2264.42
20604.1
35792
47025
54687.8
58161.1
59706.9
79154.3
77867.5
77004.7
73309.1
69695.6
64159.2
57414.7
2981.95
2291.18
20868.6
35408
47379.4
53741.1
58340.7
59869.5
79095.1
77798.2
76920.8
73104.7
70476.4
64105
57459.2
2359.73
2275.79
20481.6
35385.3
46577.1
53911.1
58380.2
59888.8
79062.8
77774.7
76868.5
74477.4
70425.7
64099
57420
7858.97
2324.51
18744.9
34413.3
45731.3
53776.2
58251.6
59765.5
79094.5
77800.4
76888.2
74502.7
70433.3
64110.8
57412.2
10656.3
2279.39
12612
31935.3
44797.6
53322.7
57939.9
59532.6
79149.8
77868.2
76983.3
73180.2
70507.2
64088.6
57350.8
2442.22
2283.86
2289.11
29654.4
44501.9
52754.5
57599.9
59244.2
79228
77959.3
75185
73515
69753.3
64129.1
57323.9
2789.37
2375.07
9781.43
31465.8
45385.5
53588.1
57286.8
58954.1
79324.4
78083.6
75375.3
70796.2
68115.2
60048.9
55558.3
2459.74
2636.93
21919.9
36108.5
47506.7
53421.4
57033.7
58738.6
79434.8
78200.7
75582.8
70995.4
68365.6
60346.6
55781.2
2761.87
2375.33
22673.3
39029.9
47430.8
53320.4
56904.6
58608.5
79529.4
78302.3
75722.7
71191.6
68614.3
60596.4
55980.2
3040.66
2402.68
26310.8
38896.6
47491.4
53321
56856.2
58547.1
79581.8
78361.6
75795.7
71281.8
68717.1
60722.6
56023.7
2325.39
2418.98
26384.1
38997.1
47500.2
53321.5
56838.5
58527.4
77101.2
75478.3
72019.2
65878.1
55214
44741.3
19164.6
2297.26
2175.7
29111.8
41855.1
50170.7
55730.5
59039.7
60613
77028.6
75393.3
71900.1
65720.5
54989.7
44524.4
19062
2288.07
2192.89
29020.3
41785.3
50205.4
55754.8
59071.2
60642
76897.5
75245.3
71697.7
65463.2
54579.2
43984.3
18901.1
2267.95
2215.09
23525.3
41776.8
50295.1
55842.2
59151.3
60709.6
76734.9
75078.9
71419.6
65135.9
58713.1
43430.3
18788.9
2262.36
2242.54
23672.3
37803.3
50535.1
56023.6
59294.1
60820.7
76584.4
74908.6
71204.6
67440.9
58449.6
47095.5
25157.8
2267.44
2259.52
20773.7
36484.1
48216.8
56398.1
59557.3
60974.7
76465.5
74755.8
72673.6
67244.6
60508.8
48919.5
26073.7
2281.9
2263.44
21340.8
36365.7
49006
54938.2
59797.9
61130.9
76373
74644.1
72616.1
67066.1
61389.5
48977.3
26498.9
2265.82
2286.41
21106.3
37554.3
48570.7
55373.5
59893.5
61149
76333
74610.1
72572.9
68415.9
61327.3
49100.2
26517.9
2338.2
2285.11
18751.8
37952.4
48186.9
55424.7
59749
60999.8
76377.4
74655.2
72602.4
68452.3
61377.7
49316.9
28031.2
2317.39
2296.79
3376.56
34674.5
46933.8
54763
59325
60690.5
76471.1
74774
72707.7
67200.2
61486.3
49091.6
26376.9
2250.68
2254.22
2277.32
30890.3
45680
53755
58845.6
60313.2
76595.7
74932.6
71265.9
67505.7
60644.8
48985.3
25928.2
2281.7
2253.1
11073.2
31329.6
46149.1
54957.8
58428.3
60005
76750.7
75109.7
71489.5
65272.2
58776.5
43596.5
20461.2
2270.43
2431.09
19990.9
36460.6
49197.1
54810.5
58221.1
59827
76916.3
75283.1
71773.8
65605.9
54816.5
44018.3
19033.3
2272.19
4059.93
23686.7
41180.3
49357.4
54846.3
58172.2
59753
77049.8
75433
71980.6
65859.8
55195.5
44571.6
19159.7
2293.72
2412.7
29129.6
41336.6
49498.7
54908.9
58178.4
59738.1
77123.2
75518.3
72097.6
66008.5
55392.5
44911.7
19228.7
2289.37
2436.21
29295.4
41518.5
49565.9
54949
58186.8
59736
76936.8
75302.5
71790.6
65671.7
55092.7
42470.3
7946.97
2304.42
10688.4
37589.6
48501
55559.6
60150
62812.4
64074.5
76838.1
75184.8
71615.3
65400.2
54797.5
41714.7
7035.73
2253.95
12665.5
37579.4
48436.7
55553.6
60142.3
62824.7
64087.9
76662.4
74979.3
71319
64975.4
54594.2
40313.9
7975.09
2250.32
3395.71
29082.1
48353.8
55574.1
60170.1
62866.6
64125.6
76443.6
74743.5
70984.4
64573.3
56127.7
39085.5
8783.3
2290.28
2232.87
28790
43185.5
55765.5
60284.9
62956.7
64196.7
76235.7
74519.2
70751.8
65587.7
55489.7
41144.7
18331.8
2278.63
2253.35
24533.5
41306.9
52838.3
60655.2
63179.3
64313
76069.1
74338.7
71325.3
65217.6
56605.4
42131.2
18898.5
2272.6
2267.12
25886.6
41926.8
54128.2
58881.2
63457.9
64449.2
75939.7
74180.9
71190.7
64959.1
57057.9
42050.6
20523.5
2250.45
2268.39
29481.3
47680.9
55150.1
59638
63587.6
64460.3
75890
74127.6
71133.6
65836.8
56923.1
42112.6
19470.2
2283.33
2234.79
39006.2
60143.2
57409
59975.8
63417.4
64288.7
75941.4
74191.6
71181.9
65884.8
57017.9
42464
22035.3
2329.53
2186.89
27541.1
55803.7
55590.4
59059.6
62885.7
63920.6
76069.8
74356.9
71315.8
65193.9
57255.8
42376.1
19667
2293.93
2258.26
13982.3
40062.3
51162.9
57570.6
62301.8
63505.6
76242
74543.6
70831.2
65613
56921.1
42499.6
18891.9
2277.82
2256.45
17295
36061.5
50409.3
58905.5
61844.1
63182.4
76454.8
74778.7
71079
64784.4
56143.4
39734.8
18131.7
2277.79
2318.3
22964.9
40998.1
53986.1
58805.1
61699.8
63045.6
76678.4
75022.8
71424.8
65198.5
54997.6
40220.4
8965.03
2298.22
9587.73
29116.8
47389.7
54385.9
58984.9
61733.3
63030
76858
75231.6
71724.4
65620.5
55090.3
42351
7422.91
2253.27
16000.1
37984
47926.3
54694.6
59145.8
61799.3
63059.8
76958
75350.2
71897.5
65883.5
55309.2
43142.5
7222
2231.4
13765.7
37995.9
48158.2
54845.7
59243.6
61841.6
63082.5
79267.6
78115.7
75683.8
71804.6
63830.8
54501
26194.7
2256.09
39727.7
55302.6
59755.6
64145.7
66855
68419.4
69189
79144.6
77961.8
75444.6
71341
63064.3
53223.9
18978.8
2264.06
37810
54489.2
59537.4
64040.3
66796.8
68402.5
69179.6
78927.4
77695.6
75048.2
70566.7
63897.2
49364.4
18816.9
2535.42
18865.8
43519.8
59532
63888
66726.1
68389.4
69173.7
78656.7
77366.6
74539.3
69820.8
61955.2
47011.2
17713.7
2241.78
9503.05
41237.3
53384.6
63872.3
66679.3
68390.3
69180
78392.7
77043.6
74129.8
69037.6
60306.8
45904.2
21416.2
2240.98
6827.12
33737
50440
60287.9
66888
68489.2
69218.7
78172.3
76806.7
73611.6
68155.3
59556.8
44801.4
20041.2
2267.87
9386.16
34460.7
50337
61069.8
64586.8
68658
69274.4
77998.8
76586.8
73247.6
67630.6
59041.9
43729.6
19350.1
2282.25
2297.2
42241.3
58124.9
61872.7
65080.9
68669.8
69218
77933.3
76506.3
73121.2
67714.5
58647.5
43338
19453.7
2278.18
17943.7
75496.1
96178.4
65688.1
65174.1
68429.6
69007.8
77986.5
76580.6
73184.9
67773.6
58770.6
43643.7
18699.2
2309.35
2924.76
48156.8
75551.6
63018.3
64228.3
67925.9
68639.4
78146.9
76795.4
73410.7
67986.2
59342
44521.1
21219.5
2322.5
2261.29
24242.2
47842.4
57329.2
62969.9
67433
68274.3
78365.3
77032.5
74169.3
68702.1
60142.5
45831
22924.1
2324.87
2275
25267.6
43838.7
57314.7
64961.5
67053.8
68008
78631.7
77366.9
74607.1
70031.8
61499.2
47379.9
22755.8
2474.59
2347.64
32556.8
50235.3
61788.4
65038.6
67026.4
67941.9
78908.1
77707.2
75136.7
70824.8
64468.3
49235.5
19253.5
2425.95
19251.8
41837.9
58184.8
62474.5
65393
67148.8
67987.6
79130.8
77980.9
75542.8
71621.1
63524.1
54369.4
21020.1
2376.01
38846.8
54240.8
58788.3
63000.3
65667.6
67271
68057.4
79256.4
78137.9
75783.1
72088.4
64175
55640.5
26671.6
2394.52
39812.4
55007
59187.4
63264.9
65823.6
67345.7
68102.9
83538.2
83213.3
82627.3
82906
83204.3
90818.9
133833
124353
97521.9
80573.3
75426.8
75159.9
75012.3
75147.8
75298.8
83402.4
83030.5
82346.4
82304.2
82046.2
89693
131477
115320
93642.7
79348.7
74903.6
74894
74891.9
75099.3
75267.8
83160
82709.8
81872.1
80780.8
80824.3
74926.7
86816.5
72787.1
70924.6
69371.3
74140.5
74353
74710.6
75026.4
75218.3
82853.6
82304.4
81169.5
79618.9
74778.4
69170.1
59958.7
19953
38983.6
65528.2
68788.6
73847
74457.7
74923.9
75149.9
82551
81900.6
80594.7
76736.5
72449
62919.2
40746.3
2247.51
22275.6
54127.3
64718.1
70302.1
74339.5
74848.5
75088.1
82295.3
81598.9
78789.3
75554.1
69375.7
58222.4
33415.4
2218.02
20545.1
50430.3
61593.7
69726.6
71704.5
74771.6
75019.9
82089.1
81336.4
78253.5
74819.1
67599
55116
28384.5
2259.15
9668.66
41000.8
57984.3
66935.1
71324.5
74581.7
74853.7
82004.8
81229.8
78060.3
73897.5
66777.1
53706.7
28215.8
2292.61
2320.71
2278.63
41871
64602.6
70776.2
74278.6
74608.9
82048.3
81293.3
78114.6
73951.7
66875.9
53949.1
27360.3
2288.67
2293.21
2297.92
41600.4
63094.2
70159
73916.1
74306.8
82217.8
81520.7
78401.2
75156
67834
55932.6
31053.2
2292.95
2306.83
29740.2
51530.5
63815.2
69705.6
73634.7
74058.7
82454.3
81801.6
80495.3
75992.3
69933.4
59256.8
35652.7
2403.94
7945.71
40750
55583.1
66733.2
72490.5
73425.1
73883
82752.1
82213
81109.6
79637.1
73733
68387
48296.9
8591.94
24634.3
53524.6
64686
71725.5
72776.4
73551.1
73897.7
83064
82635.7
81857.5
80928.5
81322.3
73226.6
80827.8
76223.8
73252.5
66593.1
72466.7
72784.1
73306.1
73747.2
74004.2
83314.2
82973
82358.6
82549.2
82606
90946
136648
117828
94788.2
78822
73845.3
73674.6
73667.5
73910
74102.2
83454.5
83164
82648.9
83197.8
83664.8
92351.4
138748
127873
98687.9
80405.8
74623.6
74106.1
73875.4
74007.6
74161.5
88564.8
89025.6
89964.3
93136
98983.4
104162
131869
140367
114023
97223.4
89478.9
85485.9
83013.7
81970.2
81559.3
88450
88866.3
89771.4
92832.5
98362.2
104448
133363
142322
114371
97005.5
89148.8
85263.1
82913.3
81917.4
81525.4
88232.3
88541.8
89410.7
91324.2
96467.2
100398
121386
147533
117345
96222.3
88058.7
84633.8
82721.3
81818.9
81465.1
87945.1
88151.9
88706.7
90171
90657.7
98105.7
119714
155222
119253
94217
85743.9
83818.3
82387
81663.9
81351.2
87656.4
87756.2
88043.7
86728.2
88077.9
89933.7
101042
183120
105423
87309.5
82711.7
81544
82057.2
81490.6
81236.9
87417.8
87372
85746.3
85510.8
84011.8
82867.1
83857.6
83830.9
89349.8
82480.4
79536.9
80697.6
80075.8
81260
81100.1
87215.3
87105
85263.9
84668.2
81170.8
77889.3
65834.5
2295.73
73388.1
73090.9
75279.8
77923.2
79592.3
81007
80900
87121.4
86990.7
85050.4
83013.6
80139.6
74976.1
58736.1
7258.58
3792.95
40242.5
66696.7
74745.9
78983
80734.6
80672.7
87137.5
87015.2
85064.5
83019.5
80148.2
75060.1
57299.6
2328.28
48985.1
30669.8
64592.7
73717
78524.2
80475.8
80435.6
87271.1
87204.8
85293.4
84772.2
81098.9
78078.2
67047.6
2175.3
2561.74
59524.3
69858.7
75525.2
78313.1
80307.9
80259.4
87464.5
87531.5
87746
85676.6
83948.2
82495.9
84316.1
122935
66137.6
71054.9
73671.3
78216.3
80491.3
80253
80143.2
87733.4
87916.7
88410.3
89750.2
88942.4
94122.7
103609
139788
95925.4
83092.3
81183.4
81774
80798.9
80353.6
80163.5
88021.4
88324.1
89172
91072.8
96048
98809.3
118029
142091
111258
92489.3
85963.9
82937.7
81281
80538.2
80256.1
88247.6
88674.3
89579.1
92766.3
98452.7
104488
134568
145911
113878
95816.9
87788
83924.5
81630
80704.4
80349.1
88367.7
88847.4
89788.8
93168.4
99108.5
104446
133193
142650
114587
96744.4
88432.1
84325.1
81817.6
80798.8
80404.9
93023.1
93785
95080.8
97508.4
102877
102364
106385
111945
104995
100556
95984.3
92007.5
89215.3
87786
87099.9
92979.6
93732.9
95088.4
97818.2
103178
103751
109024
116297
107201
101316
96290.5
92097.1
89238.7
87782.6
87095.7
92873.8
93553.6
95098.6
97680.6
102467
105489
111904
122781
111188
102868
96078.1
92000.5
89240.2
87750.9
87078.3
92703.2
93345.2
94792.5
97726.5
99788.4
107416
119417
133198
120690
104422
96267.7
91845.2
89143.5
87680.5
87026.6
92500.6
93073.9
94423.2
95184.7
99432.3
106231
122335
146103
127394
106821
96165.1
91084.2
89009.3
87569.3
86948.1
92302.4
92693
92671.2
94424.1
96867.5
103813
123888
170060
130852
107911
96181.3
91026.2
88103
87339.1
86834.7
92141.6
92478.7
92397
93874.2
95131.4
101602
118294
166311
118004
113550
96945.9
90418
87919
87160.8
86687.5
92056.7
92377
92205
92605.6
94386.2
99761.6
111988
154103
82046.2
123767
97543.2
89705.8
87551.5
86940.3
86505.5
92032.8
92354.2
92166.9
92535.3
94300.9
99870.7
114144
170599
164802
116438
95777.3
88962.1
87173.2
86701.3
86289.1
92094.7
92454.6
92252.9
93670.8
94728
101127
119087
184968
132078
103872
93044.9
88494.2
86859.9
86516.9
86103.1
92216.3
92730.7
93930.3
94220
96151.3
102011
118031
146088
119693
100642
91976.8
88722.9
87550.8
86462.2
85968.2
92377.9
92964.2
94267.6
96903.5
98394.8
105453
116253
133991
118076
100870
93072.4
89955.1
87669.3
86472.5
85927.8
92536.9
93176
94607.7
97015.2
101366
104692
112550
124007
109985
100574
94067.5
90351.9
87857.7
86537
85940.2
92644.5
93377.6
94635.3
97310.2
102470
102548
106744
114791
104986
99702.3
94767
90723.9
87963.4
86604.2
85962.6
92689.3
93442.2
94632.3
97086.6
102212
101225
104246
110355
103819
99250.4
94662.3
90773
88001.7
86633.5
85976.1
96246.4
96871.7
97918.3
98711.3
101969
101503
101070
103661
100522
100159
97684.5
95203.8
93257.1
92068.2
91414.9
96288.6
96947.3
98053.5
99293.1
102690
102677
102971
105918
102640
101242
98390
95547.3
93414.3
92142.4
91463.3
96340.4
96985.6
98344.1
100116
103328
105153
108657
113049
108104
103411
99132.7
96019.9