/*--------------------------------*- C++ -*----------------------------------*\
| =========                 |                                                 |
| \\      /  F ield         | OpenFOAM: The Open Source CFD Toolbox           |
|  \\    /   O peration     | Version:  v2012                                 |
|   \\  /    A nd           | Website:  www.openfoam.com                      |
|    \\/     M anipulation  |                                                 |
\*---------------------------------------------------------------------------*/
FoamFile
{
    version     2.0;
    format      ascii;
    class       volScalarField;
    location    "0.019";
    object      p;
}
// * * * * * * * * * * * * * * * * * * * * * * * * * * * * * * * * * * * * * //

dimensions      [1 -1 -2 0 0 0 0];


internalField   nonuniform List<scalar> 
449343
(
102491
102625
102849
103070
103167
102932
102161
100784
98849.6
96563.6
94217.9
92088.9
90372.3
89181.9
88575.2
102474
102608
102832
103052
103148
102910
102138
100760
98826.2
96541.4
94196.4
92067.2
90349.7
89158.5
88551.3
102459
102594
102818
103036
103130
102887
102111
100730
98797.3
96515.4
94172.8
92043.5
90324.4
89131.6
88523.5
102447
102582
102805
103021
103113
102860
102078
100694
98762
96484.6
94147
92018.3
90297
89101.9
88492.5
102436
102571
102794
103008
103095
102831
102042
100653
98723.7
96451.6
94120
91992.2
90268.3
89070.4
88459.5
102427
102561
102784
102994
103078
102804
102007
100614
98685.9
96419.8
94093.2
91966
90239
89037.9
88425.4
102416
102550
102773
102980
103060
102779
101975
100578
98651.1
96389.8
94064.8
91938.9
90208.7
89004.9
88391.2
102403
102538
102759
102965
103043
102757
101947
100546
98617
96358.8
94034.3
91907.7
90176.1
88971.4
88357.2
102388
102522
102743
102948
103026
102740
101931
100528
98594.4
96327.4
93998.9
91871.6
90141.1
88937.6
88324
102371
102504
102725
102929
103010
102724
101916
100511
98570.9
96295
93962.8
91832.6
90104.9
88904.2
88292.1
102352
102485
102704
102910
102991
102712
101905
100499
98551.4
96266
93926.3
91794.6
90069.9
88872.6
88262.4
102332
102464
102683
102890
102974
102701
101898
100491
98537
96242.3
93893.7
91760
90037.8
88843.5
88235
102312
102444
102662
102870
102955
102688
101887
100480
98521.7
96219.6
93864.3
91729.2
90009
88817.1
88210
102292
102423
102641
102849
102936
102672
101873
100466
98503.4
96196.8
93837.9
91702.3
89983.6
88793.3
88187.1
102272
102403
102621
102829
102916
102654
101855
100448
98483.9
96175.1
93814.8
91679.1
89961.1
88771.6
88165.9
102340
102522
102845
103218
103495
103482
102850
101416
99234.3
96611.4
93966.3
91635.6
89805.8
88559.8
87931
102323
102505
102829
103202
103477
103462
102827
101392
99211.5
96590.6
93946.2
91614.2
89782.8
88535.5
87906.3
102309
102491
102816
103188
103462
103439
102799
101362
99183.4
96567.9
93926.1
91591.6
89756.6
88507.1
87876.8
102298
102480
102806
103178
103446
103411
102760
101316
99142.9
96538.8
93904.6
91568
89728
88475.1
87843.5
102288
102471
102798
103168
103432
103375
102716
101265
99084.2
96505
93883.3
91544.3
89698
88441
87807.6
102279
102464
102793
103162
103420
103348
102674
101220
99044.8
96473.8
93863.3
91522.1
89668.3
88406.2
87770.9
102269
102455
102785
103153
103403
103329
102643
101182
99008.9
96450.1
93853.2
91501.7
89638
88371.9
87734.9
102258
102443
102772
103140
103387
103307
102611
101097
98966.3
96416.4
93824.9
91471.4
89604.6
88337.6
87700
102243
102428
102757
103122
103370
103291
102601
101136
98950.8
96385.3
93784.5
91432.4
89569
88303.5
87666.9
102226
102410
102736
103101
103354
103272
102585
101116
98925.9
96343.9
93728.2
91384.5
89531.1
88270.3
87635.9
102207
102390
102713
103077
103333
103258
102580
101107
98903.2
96310.4
93681.3
91339.9
89494.7
88239.9
87607.9
102187
102368
102690
103053
103312
103258
102582
101109
98908.8
96284.1
93639.6
91300.5
89462.4
88212.3
87582.5
102167
102347
102667
103030
103292
103246
102578
101108
98897.4
96258.7
93604.3
91266.8
89433.8
88187.5
87559.3
102147
102326
102645
103008
103270
103229
102564
101093
98877.7
96232.1
93574
91238.3
89408.7
88164.8
87537.7
102127
102306
102624
102987
103250
103211
102548
101076
98858.3
96209.2
93549.5
91214.7
89386.5
88143.7
87517.2
101954
102243
102793
103527
104272
104822
104607
103029
100186
96679.4
93298.8
90508.6
88431.9
87066.9
86392.2
101938
102227
102778
103513
104258
104803
104585
103006
100166
96663
93281.7
90487.4
88407.3
87040.7
86365.3
101924
102215
102768
103505
104250
104786
104551
102976
100137
96649.4
93269.2
90465.7
88378.3
87008.2
86331.7
101913
102206
102764
103505
104248
104759
104494
102926
100074
96628.5
93265.1
90446.2
88345.6
86970.4
86292.4
101905
102200
102762
103505
104242
104708
104381
102790
99951.5
96609.5
93256.1
90425.3
88311.2
86929.2
86249.4
101899
102199
102770
103515
104252
104672
104319
102737
99906.5
96593.7
93264.4
90411.4
88277.4
86888.1
86205.9
101891
102193
102765
103520
104234
104663
104284
102695
99864.2
96572
93346.5
90404.8
88248.5
86849.6
86164.9
101881
102184
102757
103513
104227
104656
104277
102679
99816.4
96533.9
93312
90373.4
88213.2
86813.2
86128
101867
102169
102742
103494
104205
104629
104242
102642
99799.7
96501.7
93269.6
90331.1
88176.4
86778.9
86095.2
101851
102150
102719
103462
104194
104603
104236
102634
99778.2
96452.7
93118.8
90263.4
88133.4
86747.4
86067.3
101832
102128
102689
103427
104156
104605
104252
102626
99754.3
96396.5
93034.7
90204.9
88096.9
86720.6
86044
101813
102105
102660
103394
104127
104622
104318
102706
99809.7
96341.7
92970.5
90156.9
88065.3
86697.7
86023.8
101794
102083
102634
103363
104096
104610
104338
102712
99825.8
96306.8
92915.5
90116.4
88038.5
86676.9
86005.2
101774
102062
102610
103336
104068
104590
104330
102696
99803.9
96268.8
92875.4
90085.4
88015.1
86657.2
85986.8
101755
102042
102589
103314
104045
104570
104315
102680
99783.8
96242.5
92848.2
90061.2
87994
86637.8
85968.1
101204
101650
102539
103852
105460
107062
108033
106186
101883
96526.6
91895.3
88459.5
86085.8
84597.3
83882.6
101187
101634
102526
103841
105451
107049
108007
106167
101868
96519.1
91882.9
88436.4
86057.3
84567.2
83852.1
101173
101622
102518
103841
105456
107047
107975
106150
101859
96533
91877.8
88409.8
86019.9
84526.8
83811.2
101161
101615
102523
103866
105483
107066
107789
106126
101753
96607.4
91916.4
88386.9
85974.6
84476.9
83761
101153
101610
102530
103876
105506
106989
106970
105736
102425
96666.8
91936
88365.1
85922.3
84419.7
83704.3
101148
101616
102560
103955
105592
106209
106820
105671
102418
97869.2
92024.4
88357.3
85874.6
84361.2
83647
101141
101614
102567
103972
104935
106228
106760
105598
102342
97840.5
93274.7
88343.6
85830.4
84311.9
83595.9
101133
101611
102571
103975
104923
106237
106768
105479
102296
97804.1
93214.1
88306.3
85796
84273.8
83554.1
101122
101596
102552
103954
104907
106212
106730
105528
102269
97765.4
93183.6
88266.1
85753.8
84237.9
83523.9
101108
101576
102520
103912
105547
106158
106721
105538
102254
97727.3
91845.3
88192.1
85719.6
84213.4
83503.2
101092
101552
102473
103823
105445
106919
106837
105572
102253
96426.5
91681.7
88118.6
85690.9
84199.8
83490.6
101076
101530
102438
103775
105383
106966
107619
105881
101416
96246.2
91560.7
88058.9
85670.4
84188.8
83481.1
101060
101509
102408
103728
105332
106911
107784
105866
101502
96122.1
91463.9
88018.2
85652.6
84177.4
83471.2
101043
101490
102382
103694
105291
106877
107773
105833
101447
96050
91410.4
87989.1
85635.4
84163.9
83458.9
101025
101471
102361
103670
105264
106852
107766
105818
101431
96019.9
91381
87966.9
85617.6
84147.8
83443.1
99890.5
100506
101785
103824
106692
110294
114214
111670
104455
95436.7
89058.9
85082.4
82567.3
81077.7
80391.3
99871.3
100489
101771
103817
106691
110292
114193
111658
104474
95458.1
89054.1
85052.1
82531.2
81041.5
80355.6
99853
100473
101762
103821
106715
110317
114195
111658
104505
95485.7
89033.6
85003.2
82475.9
80988.2
80303.9
99837.1
100464
101772
103886
106884
110503
111851
111687
106054
95919.1
89163.4
84966.5
82402.5
80917.8
80237.2
99821
100451
101785
103936
106953
108993
111774
111541
106008
98050.9
89191.7
84886.8
82306.7
80830.3
80158.7
99814.3
100466
101848
104150
106100
109167
111764
111348
105856
98159.4
91343.3
84881.2
82193.5
80743.7
80078.8
99800.4
100449
101832
103545
106156
109254
110815
110622
106130
99082.6
91445.7
86680.6
82065.4
80654.8
80007.5
99797.3
100457
101906
103559
106201
109284
110822
110574
106107
99064.1
91451.4
86685.7
82114.5
80604.4
79963.5
99787.8
100440
101831
103540
106181
109268
110791
110563
106053
99019.6
91392.6
86635.6
81983.6
80578.6
79934.4
99784
100435
101819
104124
106073
109156
110847
110568
106027
98004.3
91209
84696.8
82026.7
80589.6
79931.4
99776.4
100412
101750
103908
106928
108997
111664
111239
105638
97818.3
88872.1
84603.8
82055
80599.5
79938.3
99770.4
100400
101714
103836
106835
110440
111695
111431
105757
95398.2
88706.5
84583.7
82068.4
80613.4
79947.3
99762.1
100386
101683
103753
106658
110263
114048
111381
104040
94924.7
88525.7
84555.5
82074.7
80619.3
79951.4
99750.9
100372
101662
103716
106593
110188
114021
111328
103952
94836.3
88474.4
84543.6
82072.6
80617
79948.4
99735.9
100355
101643
103691
106561
110152
114014
111306
103918
94793.1
88446.3
84529.5
82062.2
80606.3
79937.3
97764.5
98501.5
100092
102822
107175
114060
119735
125361
112137
91194
83604.3
79839.3
77622.8
76433.2
75923.2
97741
98479.1
100074
102812
107181
114062
119716
125340
112133
91201.4
83572.7
79788.7
77574.4
76389.4
75881.8
97713.3
98452.3
100050
102794
107185
114091
119698
125329
112184
91189.4
83489.4
79682.2
77489.5
76318.9
75818
97685.5
98432.9
100050
102850
107571
111955
119788
125381
112040
95490.1
83488.9
79483.6
77360.8
76221.8
75732
97650.8
98394.1
100018
102924
106363
112216
120037
122826
113114
95949.7
86565.5
79216.6
77127.8
76081.4
75625.3
97631.5
98372.6
100077
102517
106482
111301
118258
121672
112947
98040.3
86565.4
81512.3
76886.2
75923.8
75514.2
97602.1
98332.3
100068
102562
106634
111345
117341
121605
113321
98857.4
88188.2
81458.6
76699.1
75785.1
75418
97590.7
98310.9
100078
102631
105998
110848
117363
121558
113225
98804.2
88089.4
81388.6
78607
75702.2
75366.8
97595.7
98327.4
100067
102597
105994
111331
117367
121550
113190
98753.3
88036.9
81312.8
76610
75710.1
75346.8
97612.2
98356.6
100072
102505
106612
111366
117334
121585
113216
98694.4
88053.3
81331.1
76710.7
75769.2
75369.4
97622.4
98372.1
100009
102930
106392
112322
118175
122591
112724
97579.2
86266.1
78887.3
76858.5
75847
75406.8
97639.7
98393.2
100025
102853
107611
112018
119803
125153
111401
94908.5
82903.4
79036.2
76999.1
75908.5
75441.1
97647.2
98394.1
100009
102777
107211
114153
119684
125050
111420
90263.9
82825.2
79157.8
77054.1
75938.5
75463
97647.5
98393.2
100004
102768
107174
114080
119652
125046
111437
90286
82860.3
79206
77080.2
75952
75471.3
97638.2
98383.3
99992.2
102748
107139
114041
119651
125044
111433
90267.3
82854.1
79212.5
77082.2
75948.6
75465.6
94606.6
95317.1
96902.5
99790.9
104707
111464
127846
157887
116956
84161.1
73529.1
71966.3
71062.6
70723.5
70611.8
94576.6
95286.3
96870.4
99757.3
104682
111437
127785
157809
116790
84052.6
73415.3
71875.4
70999.6
70673.4
70566.8
94533.5
95237.1
96811.3
99675.9
104560
111407
127661
157692
117301
84213.9
73277.4
71724.3
70888.9
70587.9
70495.2
94482.6
95180.3
96745.2
99450.1
103959
111782
127647
157500
117468
84145.8
76613.7
71275.1
70702.9
70461.7
70396
94411.3
95084.8
96558.3
99537.7
103990
110918
124764
157332
117140
87437.7
75954.9
73269.2
70313.9
70279.9
70267.9
94348.9
94951.8
97028.1
99595
103750
110911
123425
152396
121328
88974.6
77935.2
72942.1
71866.4
70066.5
70138.1
94306.7
94902.7
97017.8
99594
103786
110517
123374
152351
121079
88704.6
78986
74348.5
71708.5
69971.3
70050.2
94277.8
94875.4
97081.8
99625.3
103797
110513
123378
152369
121001
88568.6
78845.2
74225.2
71645.7
69937.5
69987.5
94307.3
94905.5
97035.4
99648.9
103828
110538
123417
152406
120895
88467.2
78779.4
74176.1
71578.5
69906.8
69987.9
94339.1
94945.7
97041.2
99593.4
103836
110583
123497
152484
120859
88420.9
78767.2
74197.5
71631.7
69927.1
70009.6
94398.7
95081.1
96575
99562.1
104065
111070
123637
152640
120953
88463.9
77667.5
72778.2
70049.6
70062.7
70069.3
94457.4
95166.8
96757.7
99509.1
103939
111882
125082
157718
115477
86821.2
75624.3
70775.6
70335
70161.1
70125.3
94491.1
95206.2
96807.5
99713.3
104681
111601
128006
157890
115510
82689
72440.3
71140.2
70443.3
70219.8
70160.6
94509.3
95231.9
96844.9
99778.3
104785
111639
128063
157996
115581
82721.1
72575.4
71238
70496.3
70248
70176.8
94507.8
95231.4
96845.8
99781.2
104782
111619
128092
158027
115635
82738.5
72623.9
71279.5
70510.1
70250.3
70174.8
90353.5
90783.7
91738.6
93488.6
96357
102924
110064
107008
31550.3
55065.6
59009.7
61621.8
63304.8
64383.3
64877.8
90318.1
90745.4
91695.3
93434.4
96309.5
102858
109994
106819
27294.8
54578.6
58768.2
61506.2
63240.5
64334.3
64835.3
90261.7
90676.6
91614.5
93349
96175.2
102731
109842
106552
31226.1
54856.9
58694.4
61430.4
63157.4
64261.4
64773.5
90189.6
90575.4
91486.9
93068.1
97466.1
102319
109572
106286
36212.2
54747.6
59991.2
61324.2
63040.4
64159.5
64694.2
90088.6
90442.3
91269.8
94206.2
97213.5
102781
110455
106413
27720.2
57298.8
61164
62406.3
62927.6
64050.6
64597.9
89979.5
90312.3
92400.7
94094.5
97699.7
103042
110354
106470
26760.2
57017
61831.1
62368.6
63909.4
64015.1
64513.8
89939.1
90264.5
92372.9
94018.4
97959.6
103007
110336
106547
25211.1
56712.7
61750.7
63188.4
63805.3
64002.1
64480.5
89918.7
90233
92341.7
94654.2
97965.8
103010
110363
106605
25461
56570.9
61668.6
63597.8
63816.1
64004.3
64447.3
89941.8
90269.7
92348
94653.8
97982.6
103044
110428
106752
24214.4
56386.6
61589.2
63548
63749.3
63959
64439.9
89978.5
90318
92395.8
94060.8
98004.6
103112
110538
106958
24066.1
56279.6
61510
63046.3
63721.2
63923.7
64427.9
90087.5
90449.8
91301.7
94186.4
97805.8
103214
110703
107196
24000.2
56230
61371.7
62071.4
62743.7
63889.4
64451
90179.8
90579.1
91523.2
93154.3
97505.6
102321
109888
107591
23935.2
54497.6
58968.4
60882
62715.3
63913.3
64479.8
90238.4
90668.3
91641.3
93438.2
96355.5
102834
110274
107756
23265.2
52674.6
57753.9
60847.6
62757.8
63951.8
64498.8
90272.1
90715.5
91702.1
93501.8
96469.4
103119
110476
107897
23229.5
52733.1
57870.5
60888.2
62784.2
63966.6
64506.6
90277.1
90723.8
91716.2
93527.4
96491.4
103174
110545
107975
23656.3
52826.1
57975.6
60929.1
62790.8
63966
64502
85270.5
85183.3
84982.9
84674.3
84631.9
88591.5
92158.1
105110
20838.9
33695.2
45222.6
51687.7
55920.1
58404
59520.8
85235.4
85144.9
84941.3
84627.2
84598
88531.9
92094.8
104890
4719.24
32950.7
44922.6
51574.3
55860.1
58360.9
59485.9
85182.6
85083.5
84875.9
84601.4
84541.6
88417.9
91966.4
104716
2300.09
32285.5
44771.4
51535.5
55816.9
58322.6
59450
85120.4
84994.4
84786.9
84647.3
87279.1
88364.8
91753.5
104545
2336.9
31894.2
44896.3
51595
55799.2
58295.2
59422.2
85042.5
84897.8
84742.9
86622.9
87309.6
90184.2
92850.3
104573
9089.62
32491.2
45444.9
52258.3
55839.9
58302.1
59407.2
84962.1
84883.9
86306
86549
88543.8
90985.8
92801
104397
2535.27
32419.2
45662.7
52230.7
56454.2
58355.5
59415.4
84946.4
84881.1
86216.9
86534.3
89182.4
90934.6
92794.2
104480
2917.71
32299.8
45642.1
52552.1
56433.1
58379.9
59432.1
84934.1
84862.9
86176.6
87508.5
89157.7
90928.6
92816.9
104502
2299.04
32228
45619.5
52739.6
56412.8
58400.5
59427.7
84946.7
84883
86178.4
87507
89173.1
90955.3
92860.7
104608
2829.49
32153.4
45580.2
52720
56398.7
58371.7
59426.8
84964.2
84891.6
86227.2
86588.1
89219.6
91022.6
92939.2
104716
2311.1
32067.7
45522.8
52502
56408.4
58335.3
59399.2
85045.5
84906.7
84773
86597.5
88662
91154.3
93065.2
104850
2354.84
32003
45437.1
52087.6
55785.9
58253.5
59355.6
85118.5
85004.2
84824.5
84733.3
87451.5
88735.8
92341
105283
2545.11
31981.9
44777.7
51429.6
55638
58175.5
59315.7
85169.9
85084.7
84908
84684.8
84700.6
88635.5
92299.5
105299
2471.6
32024.2
44396.9
51195.7
55578.7
58140.4
59290.5
85201.5
85126.2
84956.6
84699.3
84745.6
88745.8
92472.2
105442
2328.04
32029.3
44388.5
51158.4
55553.3
58119.2
59274.4
85207
85135.7
84971
84721.8
84756.6
88820.6
92557.7
105524
5033.35
32084.9
44472.8
51157.2
55541.1
58108.8
59261
80047.3
79386.9
78014.9
75829.7
75480.4
74381.1
76849.9
2292.72
24729.3
37558.5
45381.5
50792.4
54043.8
55556.2
80016.6
79353
77977.5
75790.4
75427.1
74322.9
76789.8
2307.64
24418.6
37338.4
45283.7
50729.4
54001.8
55525
79979.2
79314.4
77927.5
75749.5
75419.7
74275.9
76684.1
2306.08
23594.7
37130.2
45184.7
50675.7
53977.8
55504
79952.4
79282.1
77884
75881.8
75689.1
74179.7
76504.6
2307.49
22937.9
35910.3
45286.4
50690.8
53990.8
55508.5
79938.7
79271.4
78011.4
77917.8
76254
76244.9
77186.5
2308.91
21131.6
35596.9
44947.5
50787.6
54058.4
55545.6
79930.8
79394
79466.1
78196.7
77597
77229.3
77186.1
2285.47
21656.8
35482.8
45045.9
50724.5
54113.2
55613.3
79947.3
79432.1
79426.7
78288.4
78393.6
77291.4
77237.3
2311.67
21861.2
35622.6
44894
50799.9
54150.1
55656.6
79941.5
79431.3
79411.6
79154.7
78491.6
77315.5
77263.3
2372.92
21944.2
35703.3
44851.2
50823
54194.5
55677.3
79945.7
79429.7
79406.8
79165.2
78494.2
77312.7
77248.2
2327.93
21964
35729.5
44876.1
50845.7
54199.2
55700.1
79931.9
79397.2
79434.5
78298.6
78407.4
77308.8
77254.5
2301.79
21858.1
35702.7
44972.5
50862.2
54202.5
55692.2
79940.9
79276.4
78029.9
77943.6
77597.3
77296.5
77300.5
2287.33
21820.2
35649.2
45141.9
50941.3
54168.8
55629.1
79951.8
79289.9
77910.9
75943.9
75833.6
74487.4
76494.9
2285.22
22636.4
36491.7
45508.8
50799.3
54066.7
55564.2
79968.5
79313.6
77948.1
75806.3
75510.5
74408.6
76856.5
2295.56
23966.4
37358.3
45252.8
50711.1
53996.7
55518.4
79985.3
79332.9
77981.8
75838.4
75539.7
74490.9
77027.7
2292.35
24173.1
37262.6
45205
50668.4
53956.7
55488.3
79986.7
79338.1
77991.8
75853.6
75519
74545.7
77136.7
2292.79
24336.7
37308.7
45176.3
50648
53937.8
55468.2
75582.2
74390.9
71894.3
67537.8
65263.5
57777.6
53569.3
4958.3
2289.53
23480.3
35134.5
43225.8
48761.8
52139.7
53756.9
75550.5
74353
71842.4
67462.2
65178.6
57668.4
53436.4
2263.53
2302.57
23439.1
34962.7
43145.6
48689
52092
53720.2
75515.4
74314.4
71770.4
67333.9
65074.3
57510
53299.3
2273.14
2285.1
19319.3
34774.2
42962.2
48592.4
52048.5
53687.7
75500
74300.2
71679.2
67267.2
64978.5
57326.2
53210
2289.57
2302.35
19142.5
31941.2
42861.1
48551.4
52042.5
53684.1
75518.5
74307.8
71648.5
70221.3
64769.1
60185.4
55074.8
2308.8
2288.86
16271.8
30822.5
41336.2
48597.6
52115.2
53724.7
75548.6
74358
73586.6
70119.8
66729.7
61533
55211.2
2313.01
2300.33
17220
30484.7
41439
47710.4
52186.9
53811.2
75570.5
74376.9
73592.7
70040.4
67605.3
61607.1
55450.2
2755.55
2334.38
17800.1
30777.4
40821.3
47830.1
52248.1
53876
75565.4
74380.2
73577.6
71394.8
67608.1
61636.2
55523.6
8413.03
2304.02
18022
30985.5
40584.5
47927.4
52323.7
53929
75567.7
74371.9
73575.4
71401.8
67590.4
61577.8
55298.7
2197.23
2289.62
18147.8
31088.9
40669.4
47992.7
52368
53979.8
75547.1
74353.9
73594.5
70044.8
67595.5
61523.9
55209
2307.16
2339.54
18102.2
31100.6
41087.6
48025.9
52407.2
54005.5
75519
74308.4
71654.2
70210.5
66742.8
61517.2
55195.3
2311.95
2320.32
17991.6
31083.6
41848.1
48995
52413.2
53970.9
75499
74303.9
71693.7
67297.6
64945.5
57395.9
53351.8
2285.21
2294.12
18835.4
32858.5
43410.9
48934.9
52339.1
53933.9
75503.6
74308.1
71776.8
67363.6
65046.9
57545.9
53416.6
2417.41
2295.67
19712.1
35238.7
43313.8
48893.2
52290.6
53906.8
75517.6
74326.5
71829.8
67476.8
65196
57731.4
53568.1
3155.35
2295.54
22747
35080.8
43281.4
48860
52262.4
53886
75519.4
74334.5
71851.8
67523.9
65262.4
57888.8
53811.5
2512.04
2297.24
23085
35136.6
43265.2
48853.2
52246.5
53869.6
72687.3
71083.5
67685.9
61693.4
51374.9
41893.3
17588.9
2328.66
2299.7
25491.3
36716.6
44451.3
49656
52822.5
54343.1
72644.4
71028.3
67594.3
61541.8
51121.3
41616.3
17417.9
2243.76
2307.89
25248.5
36496.1
44320.5
49554.4
52759.4
54293.9
72591.8
70965.1
67481.3
61370.3
50830.5
41091.5
17175.7
2251.25
2301.66
20682.1
36075.4
44037
49399.5
52676.2
54234.8
72554.2
70933.4
67356.4
61216.2
55215.5
40630.4
17105.3
2270.51
2288.81
19552.4
31826.3
43716
49250.8
52614.4
54200.6
72558.1
70942.3
67344.9
63845.6
55188.1
44422
23507
2284.94
2280.86
14891.5
29879.4
41124
49236.7
52662.9
54225.8
72591.3
70966.5
69072.7
63870.9
57458.9
46368.6
24496.8
2321.03
2291.94
15737.6
29291.7
41196
47597.1
52760.7
54323.4
72606.4
70972.9
69143.8
63872.2
58509.5
46558.1
24852.6
2284.41
2309.76
16776.9
29770.9
40214.5
47739.6
52858.7
54413.9
72601.5
70975.8
69155.6
65257.5
58494
46620.5
24934.3
2305.31
2256.58
17359.4
30173.1
39854.5
47903.2
52971.2
54504.5
72603.4
70965.4
69142.7
65241.6
58447.6
46498.3
24585.5
2301
2274.91
17471
30365.4
40009.5
48024.2
53053.9
54583.1
72589.6
70958.9
69128.2
63821
58427.1
46359.8
24442.4
2273.46
2337.05
17402
30405.5
40699
48101.7
53118.6
54639.8
72561.3
70941.4
67341.2
63913.3
57391.4
46276.2
24339.9
2296.32
2286.39
17381.6
30422.8
41961.2
49874.8
53145.4
54644.9
72557.6
70937.7
67364.6
61226
55221.1
40719.7
18855
2292.16
2294.85
18491.3
33001.6
44554.5
49888.9
53122.3
54648.9
72583.7
70958.3
67477.5
61370.4
50836.1
40949.5
17260.3
2278.02
2302.08
20203.7
36598.7
44606.5
49918.8
53128.1
54656
72613.8
70998.5
67564.6
61513
51087.4
41389.8
17391.9
2287.01
2301.31
24591.1
36736
44599.3
49919.7
53130
54657.1
72625.2
71020.8
67619.7
61620.8
51274.6
41768.1
17558.5
2282.58
2302.04
25107.3
36809.4
44636
49939
53129.3
54652.9
71997.1
70325.6
66761.2
60722.5
50055.9
39455.1
6362.32
2305.35
6216.84
31766.2
41913.6
48718.1
53162
55822
57093.1
71936.7
70244.7
66614.9
60420.1
49609.2
38420.4
4283.68
2205.79
11949
31775.1
41720.2
48516.1
53019.9
55737.5
57029.7
71860.8
70149.1
66444.8
60077.2
49759.4
36566.9
6341.82
2248.81
6188.03
24009.2
40901.3
48070.7
52785.4
55613.3
56945.2
71799.6
70093
66325.5
59906.8
51868.2
35318.2
7697.3
2280.57
2247.91
21656.7
35392.2
47623.9
52543.9
55502.1
56883.7
71791.5
70112.2
66392.4
61489.8
51634.7
38023.5
16755.4
2288.5
2277.12
16126.7
32576.3
44228.8
52531.1
55532.7
56898.9
71829
70179.9
67384.8
61526.2
53307.7
39455.1
17100.9
2279.77
2285.1
16783.3
31678
44333.3
50329.3
55678
57013
71847.5
70202.6
67464.3
61656.8
54220.9
39934
18888.4
2291.79
2286.06
18437.4
32453.2
43086.2
50534.7
55825.2
57132.3
71850.6
70210.8
67516.8
62638.5
54307.9
40190.2
18689.2
2311.5
2288.29
19747.4
33181.6
42671.7
50777.1
55980.1
57259.2
71848
70196.2
67495.8
62597.7
54212.9
39929.1
17942.1
2277.49
2287.21
19930.6
33476.1
42901.3
50945.2
56096.7
57362.3
71834.6
70178.5
67420.7
61540.4
54045.3
39492.3
17158.8
2301.68
2284.42
19718.3
33468.2
43803.6
51048.4
56172.6
57439.8
71808.2
70122.9
66399.7
61533.7
53165.5
39271.8
17130.6
2289.55
2304.41
19714.3
33455.7
45465.4
53407.7
56190.6
57467.6
71819.4
70113
66347.9
59926.5
51710.2
35799
16301.1
2279.76
2295.67
21159
36921.4
48790.6
53421.4
56196.6
57499.4
71868.4
70155.8
66447.6
60070.9
49689.8
35779.6
6949.45
2292.39
2305.34
23736.7
41702.6
48903.3
53513.2
56248.2
57537.9
71919.6
70224
66580.8
60355.1
49532.7
38056.9
4763.52
2290.14
2512.07
31099.7
41872
48934.9
53572.1
56281.2
57561.6
71946.1
70267.2
66676.2
60588.5
49776.3
38974.7
4295.02
2283.15
3469.41
31495.6
42032.1
49048.5
53625.9
56300.1
57571.7
73755.9
72481.6
69793.5
65607.6
56879.2
48484.1
15751.5
2494.92
31272.7
47023.6
51463.7
56065.6
58978.3
60732.4
61590.4
73677.8
72368.6
69574
65073.6
55672.1
45910
2335.15
2322.28
28789.1
45437.1
50970.8
55735.3
58789
60626.4
61514.9
73580.1
72235.5
69341.7
64441.1
56989.8
42647.1
12051.4
2367.59
13240.6
34788.2
49950.6
55092
58469.9
60470.2
61413.1
73498.7
72126.8
69119.4
64060.5
56011
40779.9
12761.1
2280.74
2298.58
30125.1
43419.9
54551.8
58151.6
60333.1
61337.4
73479.2
72115
69137.4
63998.2
55150.8
40972
18343.4
2305.1
2255.3
21655.9
39757.1
50676.4
58196.6
60365.1
61356.4
73516.1
72204.9
69124.4
63917.9
55664.5
41542.5
18175.8
2272.81
2266.85
22032.2
38596.6
50911.6
55673.3
60587.1
61498.1
73539.6
72245.8
69185.3
64137.1
56363
42620.3
18858.9
2298.59
2297.01
25132
39980.9
49618.6
55967.4
60787.2
61645.6
73552.6
72264.9
69256.3
64507.7
56739.2
44016.7
21966.9
2308.21
7314.78
27802.9
41306.2
49283.7
56327.6
60984
61803.4
73548.7
72247
69231.3
64439.2
56540.2
43340.7
20547.3
2313.68
4998.17
27871.1
41612.6
49566.3
56524.7
61120.5
61925.3
73540.1
72224.6
69139.1
63967.2
56049.4
41836
18459.5
2296.41
2297.53
26947.2
41258.5
50521
56599.9
61196.8
62015.6
73523.5
72158.9
69184.4
63946.2
55513
41314.6
17909.5
2288.5
2303.55
26573.1
41031.5
52383.8
59299
61175.8
62045.7
73551.2
72185.7
69190.7
64148.8
55523.4
40498.3
17525.8
2288.73
2301.4
28777
45339
56103.5
59272.1
61191.5
62088
73620.8
72278.8
69385.4
64481.1
56918.5
41645.3
12044.4
2328.81
7273.64
34100.6
51328.5
56277.4
59417.5
61271.7
62148.6
73692.2
72380.3
69570.2
65024.4
55572.2
45455.4
2376.21
2316.49
28069.4
46675.4
51451.5
56465
59547.3
61327.8
62189.7
73734.2
72451.3
69723
65440.4
56459.9
47026.9
12211.7
2430.18
31509.3
47650.1
51895.9
56683.9
59643.1
61367.5
62212.5
77507.8
76968.5
75892.9
75489.8
73553
82267.1
113370
115272
84275.2
70366.6
65581.1
66091.7
66480.1
66963.4
67271
77419.2
76827.1
75628.9
74789.8
72117.7
79621.8
108596
93860.9
76687.1
67689.4
64569.7
65573.7
66240.9
66841.6
67189.6
77306.1
76649.7
75328.7
73335.8
71478.8
63983.8
62232.8
41170.4
46730
55387
62940.9
64605.5
65856.4
66667.8
67080.3
77205.2
76485.7
74951.4
72637.7
66462.5
57774.6
38140.9
11296.7
13533.9
48315.1
56435.4
63977.5
65493.5
66527.3
67001.6
77169.9
76421
74854.1
70719
65216.9
54018
30146.2
2286.07
2303.65
36833.4
52365.5
60174.3
65524.9
66555.3
67025.3
77205.1
76515.4
73759.7
70499.2
64279.3
52794.6
27626.9
2262.33
2296.14
37346.3
51270.5
60535.8
63068.2
66755.1
67187.6
77229.4
76563.6
73741.4
70806.2
64671.6
55577.3
34151.9
2255.39
12551.5
44084.2
53896.8
59449.9
63452.1
66965.3
67345.2
77250.6
76595.5
73823.6
70409.9
65452.2
60246.3
68336.1
2290.31
11549.4
50594.5
56557.1
59378.8
63917
67178.8
67518.9
77252.2
76582.9
73801.8
70331.8
65102.6
57739.9
41677.2
1928.5
16439.6
49036.7
56507.7
59685.5
64143.6
67326
67651.7
77257.5
76572.2
73731.2
70647.1
64243.8
53706.8
29616.4
2323.97
13663.3
44614.7
55034.3
60536.9
64204.8
67421.4
67756.9
77255.7
76522
75000.2
70584.3
64295.9
52810.5
28007.7
2273.61
15405.9
43018.8
54276.3
62344.6
66739.2
67456.8
67789
77305.9
76608.7
75124.1
72904.6
65911.7
56722.2
31192.7
2288.29
11020.3
46547.3
59025.7
65726.4
66778.1
67496.5
67843.1
77396.8
76756.4
75462.6
73523.8
71681.8
60160.3
44630.6
21814.3
38258.9
55211.1
64917.5
66113.5
66987
67594.6
67916.3
77483.1
76899.8
75708.8
74833.3
72208.4
78484.9
109168
81797.3
77259.1
69313.2
65627.7
66698.6
67192.7
67674
67972
77535.5
76999.6
75911.5
75403.4
73529.4
80692.7
113029
104268
81599.4
70627
66317.8
67010.5
67324
67729.6
68003.7
82203.6
82407.3
82702.4
85159.6
87801.2
93366.8
110499
104382
100055
85856.3
78890.1
76092
74252.3
73600.8
73373.7
82135.8
82294.8
82573
84865.9
87689.3
94083.1
119897
117972
99325.9
84883.3
78127
75653.7
74043.9
73490.8
73301.5
82041.9
82103.7
82395.6
83336.6
86494.8
88874
110243
132113
101125
81429.2
76411.8
74629.3
73698.2
73326.5
73203.6
81952.3
81946.6
82017.7
82617.7
81046.3
85262.3
100472
126794
91361.2
76828.6
72626.4
73902.1
73367.6
73203
73133.8
81914.3
81856.7
81794.3
79821.6
79555.3
77407.9
74425.4
54006.3
50597.3
65861.1
69128
71112.5
73285.7
73211.2
73148.3
81947.7
81841.8
80122.7
79492.9
77188.6
73535.7
61587
2337.05
38311
64518
67702.1
71156.2
71339.2
73303.9
73281.9
81968.6
81863.2
80105.6
79566.5
76603.4
74773.2
65992.9
2449.89
66793.2
76303.2
70222.2
70356.4
71669.6
73475.4
73420.4
81996.7
81900.2
80167.7
78571.6
77179.2
77340.9
79806.4
19243.9
124408
103565
74525
70845.3
72059.4
73677.4
73590.7
82008.8
81907.9
80177.9
78558.3
77015.1
76116.7
72538.1
1551.8
78221.1
88369
74426.4
71401
72367.7
73833.6
73726.2
82032.1
81943.5
80174.2
79631.9
76513.9
74305.2
65507.9
12322.1
80352.1
74414.1
72347
71933.6
72551.7
73970
73852.6
82044.6
82018.6
82041
79809.6
77603.5
74599.3
67051.4
24442.7
60140
72513.1
71953.4
73219.8
74473.7
74105.8
73918.8
82104.8
82140.3
82307.7
83066.3
81023.3
84023.7
86024.3
90053.1
78659.8
77081.3
75491.1
75639.3
74652.2
74184.9
73994.5
82188.6
82288.9
82663.7
83767.5
87362.5
88921.4
110959
144799
109359
84215.5
78706.3
76275.5
74894.8
74297.2
74073.4
82257.2
82446.4
82797.9
85144.4
88495.1
94127.7
121661
123201
104196
87004.3
79588.4
76960.4
75081
74384.1
74129.5
82292.2
82524.3
82904.5
85379.7
88803.2
93772.9
115952
112966
101111
87198.7
79937.4
77152.6
75176.5
74429.6
74155.8
86614.7
87183.1
87847.5
90253
92725.5
92342.1
95637.2
98097.2
97749.9
89614.9
86159
83073
80683.1
79583.8
79054.1
86618.2
87182.3
87988.7
90609
93906.8
94337
100427
101282
97631.1
90455.9
86254.7
83030.2
80631.5
79536.6
79019.1
86619.7
87102.7
88199.1
90288.1
94016.8
96309.2
101556
112359
99906.3
91894.5
85951.9
82632.4
80517
79449.8
78972.3
86615.1
87079.8
88136.6
90474.1
91633
98633.2
110880
127877
109492
92617.3
85122.1
82233.4
80341.7
79382.3
78941.8
86615.1
87034.8
87987.3
88339.8
91502.7
96951
112655
154164
116818
91991.8
83614.9
80745.3
80184.6
79362.4
78949.6
86647.3
86952.4
86694.2
88013.7
89671.3
94698
112067
181951
114626
87118
81781.6
80490.2
79051.1
79359.9
79033
86678.1
86963.4
86736.4
87925.2
88789.4
93532.9
103294
128241
28454.4
66450.6
79989.5
79943.4
79291.7
79483.5
79146.3
86719.6
87009.1
86795.7
87182.6
88767
92485.5
92119.4
51941.2
55392.6
4219.74
80625.6
80423.7
79584.8
79661.1
79306.1
86734.8
87032.4
86844.6
87225.7
88880.6
93008.4
96648.8
76299.9
2623.3
71324.5
83977.2
81245.6
79902.9
79824
79438
86757.1
87086.9
86870.8
88165.7
89093
94341.7
104965
116939
125582
93901.3
85861.5
81882.4
80170.9
79978
79569.9
86776.9
87239.1
88313
88572
90275.4
95738.3
113149
166395
118994
96663.7
86580.6
82692.7
81351.2
80196.5
79669.7
86801.4
87317.3
88497.8
91047.4
92452.2
100629
115655
154420
120504
97013.1
87511.8
83884.9
81531.2
80295.5
79747.9
86803.9
87339.5
88560.5
90834.3
95153.8
98965
108190
122822
106554
95780.7
87820.2
84121.1
81628.5
80364.1
79795.6
86778.3
87381.6
88312.8
90971.3
94960.2
95364.1
102101
105577
100521
92411.1
87744.4
84272.8
81615.8
80392
79811.2
86747.1
87353.6
88178.5
90589.1
94069.8
93739.3
97856.6
101666
98687.8
91697.4
87314.1
84138
81581
80382.6
79805.8
90046.9
90610.3
91089.4
92394.9
94340
93998.2
95745.6
101157
96519.1
91225.7
89773.1
87199.8