/*--------------------------------*- C++ -*----------------------------------*\
| =========                 |                                                 |
| \\      /  F ield         | OpenFOAM: The Open Source CFD Toolbox           |
|  \\    /   O peration     | Version:  v2012                                 |
|   \\  /    A nd           | Website:  www.openfoam.com                      |
|    \\/     M anipulation  |                                                 |
\*---------------------------------------------------------------------------*/
FoamFile
{
    version     2.0;
    format      ascii;
    class       volScalarField;
    location    "0.019";
    object      p_rgh;
}
// * * * * * * * * * * * * * * * * * * * * * * * * * * * * * * * * * * * * * //

dimensions      [1 -1 -2 0 0 0 0];


internalField   nonuniform List<scalar> 
449343
(
102353
102487
102712
102932
103029
102794
102024
100647
98712.2
96426.3
94080.5
91951.6
90235
89044.6
88437.8
102356
102490
102714
102934
103031
102793
102021
100643
98708.4
96423.6
94078.7
91949.5
90232
89040.8
88433.6
102361
102496
102720
102938
103032
102789
102013
100632
98699.2
96417.3
94074.7
91945.4
90226.3
89033.5
88425.4
102369
102503
102727
102943
103034
102781
102000
100615
98683.5
96406.2
94068.5
91939.8
90218.5
89023.4
88414.1
102378
102512
102735
102949
103036
102772
101983
100595
98664.9
96392.7
94061.2
91933.3
90209.5
89011.5
88400.6
102387
102522
102745
102955
103038
102764
101967
100575
98646.7
96380.5
94053.9
91926.8
90199.7
88998.7
88386.2
102396
102531
102753
102961
103040
102759
101956
100558
98631.5
96370.2
94045.1
91919.2
90189.1
88985.3
88371.6
102403
102538
102759
102965
103043
102757
101947
100546
98617
96358.8
94034.3
91907.7
90176.1
88971.4
88357.2
102408
102542
102763
102968
103046
102759
101951
100548
98614
96347
94018.6
91891.2
90160.8
88957.2
88343.6
102410
102544
102764
102968
103049
102764
101955
100551
98610.1
96334.3
94002
91871.8
90144.1
88943.5
88331.4
102411
102544
102763
102969
103050
102771
101964
100557
98610.3
96324.8
93985.2
91853.4
90128.8
88931.4
88321.2
102411
102543
102762
102969
103052
102780
101977
100569
98615.5
96320.7
93972.1
91838.4
90116.3
88922
88313.5
102410
102542
102760
102968
103053
102786
101985
100578
98619.8
96317.7
93962.4
91827.3
90107.1
88915.2
88308.1
102409
102541
102759
102967
103053
102790
101991
100583
98621.2
96314.5
93955.6
91820
90101.3
88911
88304.8
102409
102540
102758
102967
103053
102791
101993
100585
98621.3
96312.5
93952.2
91816.5
90098.5
88909
88303.2
102203
102384
102708
103081
103357
103345
102713
101279
99097
96474.1
93829
91498.3
89668.5
88422.4
87793.7
102206
102387
102711
103084
103359
103344
102710
101275
99093.8
96472.9
93828.5
91496.5
89665
88417.8
87788.6
102211
102393
102718
103090
103364
103341
102701
101264
99085.3
96469.8
93828
91493.5
89658.5
88409
87778.7
102219
102402
102727
103099
103368
103332
102682
101237
99064.4
96460.3
93826.2
91489.5
89649.5
88396.6
87765
102229
102413
102739
103109
103373
103316
102657
101207
99025.3
96446.2
93824.5
91485.5
89639.2
88382.1
87748.7
102240
102425
102754
103123
103381
103309
102635
101181
99005.6
96434.6
93824
91482.9
89629.1
88367
87731.7
102250
102436
102765
103133
103383
103309
102624
101162
98989.3
96430.5
93833.6
91482.1
89618.4
88352.3
87715.3
102258
102443
102772
103140
103387
103307
102611
101097
98966.3
96416.4
93824.9
91471.4
89604.6
88337.6
87700
102263
102448
102776
103142
103390
103311
102620
101156
98970.4
96404.9
93804.1
91452
89588.6
88323.1
87686.5
102265
102449
102775
103141
103394
103311
102624
101155
98965.1
96383.2
93767.5
91423.7
89570.4
88309.6
87675.2
102266
102448
102772
103136
103392
103317
102639
101166
98962.1
96369.3
93740.1
91398.7
89553.6
88298.7
87666.7
102266
102447
102768
103132
103391
103336
102661
101187
98987.3
96362.6
93718.1
91378.9
89540.8
88290.8
87661
102265
102445
102765
103128
103390
103344
102676
101206
98995.5
96356.8
93702.4
91364.9
89531.9
88285.6
87657.4
102265
102444
102763
103125
103388
103347
102682
101211
98995.5
96349.8
93691.7
91356
89526.4
88282.5
87655.4
102264
102443
102762
103124
103387
103348
102685
101214
98995.6
96346.5
93686.9
91352
89523.9
88281.1
87654.5
101817
102106
102656
103390
104134
104684
104470
102892
100049
96542
93161.4
90371.2
88294.6
86929.6
86254.8
101820
102110
102660
103395
104140
104686
104467
102888
100048
96545.2
93164
90369.7
88289.6
86923
86247.6
101826
102117
102670
103407
104152
104688
104453
102878
100039
96551.3
93171.1
90367.6
88280.2
86910.1
86233.6
101835
102128
102686
103427
104170
104680
104415
102848
99995.9
96550
93186.6
90367.7
88267.1
86891.9
86213.9
101846
102141
102703
103446
104183
104649
104322
102731
99892.7
96550.6
93197.2
90366.5
88252.3
86870.4
86190.6
101859
102160
102730
103476
104213
104633
104280
102698
99867.3
96554.4
93225.2
90372.1
88238.2
86848.8
86166.7
101871
102173
102746
103500
104215
104644
104264
102675
99844.6
96552.3
93326.9
90385.2
88228.9
86829.9
86145.3
101881
102184
102757
103513
104227
104656
104277
102674
99816.4
96533.9
93312
90373.4
88213.2
86813.2
86128
101887
102189
102761
103513
104224
104649
104261
102662
99819.3
96521.3
93289.2
90350.8
88196
86798.5
86114.8
101890
102189
102758
103501
104233
104642
104275
102673
99817.5
96492
93158
90302.7
88172.6
86786.6
86106.5
101891
102186
102748
103486
104215
104664
104311
102685
99813.2
96455.4
93093.6
90263.7
88155.8
86779.5
86102.8
101891
102183
102739
103472
104205
104701
104397
102785
99888.2
96420.2
93049
90235.4
88143.8
86776.1
86102.3
101892
102181
102732
103461
104194
104708
104436
102810
99923.9
96404.9
93013.6
90214.5
88136.6
86775
86103.3
101892
102180
102728
103454
104186
104707
104447
102814
99921.6
96386.5
92993.1
90203.1
88132.8
86774.9
86104.6
101892
102180
102726
103451
104182
104707
104452
102817
99921.1
96379.9
92985.5
90198.5
88131.3
86775.1
86105.4
101067
101512
102402
103715
105323
106924
107895
106049
101745
96389.2
91757.9
88322.2
85948.4
84459.9
83745.3
101069
101516
102408
103724
105333
106931
107889
106049
101750
96401.4
91765.1
88318.7
85939.5
84449.4
83734.4
101075
101524
102420
103743
105357
106949
107877
106052
101761
96434.9
91779.7
88311.7
85921.8
84428.7
83713.1
101083
101537
102445
103788
105405
106987
107711
106048
101674
96528.9
91837.9
88308.4
85896.1
84398.4
83682.5
101094
101552
102471
103818
105448
106930
106907
105672
102361
96607.9
91877.2
88306.2
85863.5
84360.9
83645.5
101109
101577
102521
103916
105553
106165
106776
105627
102374
97825
91985.1
88318
85835.3
84322
83607.7
101121
101594
102547
103953
104910
106203
106736
105573
102317
97816
93250.2
88324
85810.7
84292.3
83576.3
101133
101611
102571
103975
104918
106232
106763
105474
102291
97799.2
93209.2
88306.3
85796
84273.8
83554.1
101142
101616
102571
103974
104921
106227
106744
105542
102284
97780.1
93198.3
88285.7
85773.4
84257.5
83543.5
101148
101615
102559
103951
105587
106193
106755
105572
102289
97761.6
91884.6
88231.3
85758.8
84252.6
83542.4
101151
101611
102532
103881
105504
106978
106891
105626
102307
96485.4
91740.5
88177.4
85749.8
84258.7
83549.5
101155
101608
102517
103854
105462
107044
107697
105959
101495
96324.7
91639.2
88137.4
85748.9
84267.3
83559.6
101158
101608
102506
103827
105430
107009
107882
105964
101600
96220.2
91562
88116.3
85750.7
84275.5
83569.3
101160
101607
102500
103812
105409
106995
107891
105951
101565
96167.8
91528.1
88106.8
85753.1
84281.7
83576.6
101162
101608
102498
103807
105402
106990
107903
105956
101568
96157.2
91518.3
88104.2
85755
84285.1
83580.5
99753.1
100369
101648
103687
106554
110157
114077
111527
104317
95299.3
88921.6
84945
82430
80940.3
80253.9
99753.6
100371
101653
103699
106573
110174
114076
111535
104356
95340.4
88936.3
84934.4
82413.5
80923.7
80237.9
99754.9
100375
101664
103723
106617
110218
114097
111555
104407
95387.6
88935.5
84905.1
82377.8
80890.1
80205.8
99758.6
100386
101693
103808
106806
110424
111768
111604
105970
95840.6
89084.9
84888
82324.1
80839.4
80158.8
99762.1
100392
101726
103877
106894
108930
111710
111477
105944
97987.1
89132.8
84828
82247.8
80771.5
80099.9
99775.1
100427
101809
104111
106056
109123
111720
111304
105812
98115.2
91299.2
84842
82154.3
80704.5
80039.6
99780.8
100429
101812
103520
106131
109229
110788
110595
106103
99055.7
91421.2
86656.1
82045.8
80635.2
79987.9
99797.3
100457
101906
103554
106196
109279
110814
110567
106099
99056.8
91446.5
86680.8
82114.5
80604.4
79963.5
99807.4
100459
101851
103554
106196
109282
110803
110576
106066
99031.8
91407.3
86650.3
82003.3
80598.2
79954
99823.2
100474
101859
104164
106107
109190
110879
110600
106059
98038.6
91243.4
84736
82065.9
80628.8
79970.6
99835.2
100471
101809
103967
106987
109051
111718
111293
105692
97872.2
88931
84662.7
82113.9
80658.4
79997.2
99848.9
100478
101792
103914
106913
110519
111769
111504
105830
95476.7
88785
84662.2
82146.9
80691.9
80025.7
99860.2
100484
101782
103851
106756
110361
114146
111474
104138
95022.8
88623.8
84653.6
82172.8
80717.4
80049.5
99868.6
100489
101779
103833
106711
110306
114139
111440
104070
94954
88592.2
84661.4
82190.3
80734.7
80066.1
99873.3
100493
101780
103828
106699
110290
114152
111438
104055
94930.4
88583.6
84666.9
82199.5
80743.7
80074.6
97627.2
98364.2
99955.1
102685
107038
113923
119593
125219
111995
91056.7
83466.9
79702
77485.4
76295.8
75785.8
97623.3
98361.4
99956
102694
107063
113945
119593
125218
112011
91083.7
83455
79671
77456.7
76271.7
75764.1
97615.2
98354.2
99952.1
102696
107087
113993
119595
125226
112081
91091.3
83391.3
79584.1
77391.4
76220.8
75719.9
97607
98354.4
99971.5
102771
107493
111872
119704
125298
111957
95406.7
83410.4
79405.1
77282.3
76143.3
75653.5
97592
98335.3
99959.6
102865
106299
112153
119973
122760
113048
95886
86501.7
79157.7
77068.9
76022.5
75566.5
97592.3
98333.4
100037
102473
106438
111254
118211
121624
112900
97993.7
86521.2
81468.1
76846.9
75884.6
75475
97582.5
98312.7
100048
102537
106610
111318
117313
121576
113293
98829.2
88161.2
81434.1
76679.5
75765.5
75398.4
97590.7
98310.9
100073
102626
105990
110840
117355
121550
113216
98795.7
88082.1
81383.7
78602.1
75702.2
75366.8
97615.3
98347.1
100087
102612
106006
111343
117379
121561
113201
98764.4
88049.2
81327.5
76629.6
75729.7
75366.4
97651.5
98395.9
100112
102539
106646
111398
117364
121616
113246
98725
88085.2
81365.4
76749.9
75808.4
75408.6
97681.3
98431
100068
102989
106446
112376
118227
122642
112776
97630.7
86320.1
78946.1
76917.4
75905.9
75465.6
97718.2
98471.7
100104
102932
107689
112092
119877
125226
111474
94982
82981.9
79114.7
77077.6
75987
75519.6
97745.3
98492.2
100107
102876
107309
114251
119777
125143
111514
90362
82923.3
79255.9
77152.2
76036.6
75561.1
97765.2
98511
100122
102886
107292
114198
119765
125158
111550
90403.7
82978
79323.7
77197.9
76069.7
75589
97775.5
98520.6
100129
102886
107276
114178
119783
125176
111565
90404.7
82991.4
79349.9
77219.5
76086
75602.9
94469.3
95179.7
96765.1
99653.6
104570
111322
127704
157742
116811
84018.9
73391.7
71828.9
70925.2
70586.2
70474.4
94458.9
95168.6
96752.7
99639.6
104564
111315
127663
157684
116665
83930
73297.6
71757.7
70881.9
70555.7
70449.1
94435.4
95139
96713.2
99577.8
104462
111304
127558
157586
117196
84110.8
73179.3
71626.2
70790.8
70489.8
70397.1
94404.1
95101.8
96666.7
99371.7
103875
111698
127563
157414
117383
84062.4
76530.3
71196.6
70624.4
70383.2
70317.5
94352.5
95025.9
96499.4
99473.9
103926
110852
124698
157265
117074
87371.5
75891.1
73205.4
70255.1
70221.1
70209
94309.7
94912.5
96983.9
99550.9
103703
110865
123377
152348
121280
88926.8
77888.6
72898
71822.3
70027.2
70098.9
94287.1
94883.1
96993.3
99569.4
103759
110488
123346
152323
121051
88676.4
78957.8
74321.6
71683.9
69951.7
70030.6
94277.8
94875.4
97076.9
99620.4
103789
110505
123369
152360
120993
88560
78836.6
74217.8
71640.8
69937.5
69987.5
94326.9
94925.1
97050.1
99663.6
103840
110549
123428
152417
120906
88478.3
78790.4
74188.3
71593.2
69926.4
70007.5
94378.4
94984.9
97075.5
99627.8
103868
110613
123528
152514
120889
88451.6
78797.9
74229.4
71666
69966.4
70048.8
94457.6
95140
96633.9
99616.1
104119
111121
123688
152690
121003
88514.2
77719
72832.1
70108.5
70121.6
70128.2
94535.8
95245.2
96836.2
99587.5
104013
111956
125153
157789
115548
86892.4
75697.9
70854.1
70413.5
70239.6
70203.8
94589.2
95304.3
96905.6
99811.4
104779
111694
128100
157981
115601
82782.2
72538.4
71238.3
70541.4
70317.9
70258.7
94627.1
95349.7
96962.6
99896
104902
111752
128176
158106
115691
82833.9
72693.2
71355.7
70614.1
70365.7
70294.5
94645.2
95368.7
96983.2
99918.5
104919
111752
128225
158157
115765
82870.9
72761.2
71416.9
70647.4
70387.6
70312.1
90216.1
90646.3
91601.3
93351.2
96219.6
102782
109919
106862
31404.4
54923.3
58872.4
61484.5
63167.4
64246
64740.5
90200.3
90627.7
91577.6
93316.7
96191.8
102735
109869
106693
27168.5
54456
58650.4
61388.5
63122.8
64216.6
64717.6
90163.6
90578.5
91516.4
93250.9
96077.1
102628
109736
106445
31119.4
54753.9
58596.3
61332.3
63059.3
64163.3
64675.4
90111.1
90496.9
91408.4
92989.6
97382.7
102236
109486
106199
36125.1
54664.2
59907.8
61245.7
62962
64081
64615.7
90029.8
90383.4
91211
94142.5
97149.7
102715
110387
106345
27652.8
57231.4
61097.8
62342.5
62868.8
63991.8
64539.1
89940.2
90273
92356.5
94050.3
97653.1
102994
110306
106422
26712.4
56969.2
61783.2
62324.4
63865.2
63975.8
64474.6
89919.5
90244.8
92348.4
93993.9
97931.4
102979
110308
106519
25182.9
56684.5
61722.5
63161.4
63780.8
63982.5
64460.8
89918.7
90233
92336.8
94646.9
97957.2
103001
110355
106597
25452.5
56562.3
61660
63589.2
63811.2
64004.3
64447.3
89961.5
90289.4
92362.7
94666.1
97993.6
103055
110439
106763
24225.4
56397.7
61600.2
63559
63764
63978.6
64459.6
90017.7
90357.3
92430.1
94095.1
98035.3
103143
110568
106989
24096.7
56310.2
61540.6
63078.2
63755.5
63962.9
64467.2
90146.4
90508.6
91360.5
94240.4
97857.3
103264
110754
107246
24050.5
56280.2
61421.9
62125.4
62802.5
63948.2
64509.9
90258.3
90657.6
91601.7
93232.8
97579.2
102394
109959
107661
24005.1
54568.7
59041.9
60960.5
62793.7
63991.8
64558.3
90336.5
90766.4
91739.4
93536.3
96453.6
102927
110365
107845
23354.7
52767.8
57852
60945.7
62855.9
64049.9
64596.9
90389.8
90833.2
91819.9
93619.6
96587.1
103232
110586
108006
23338.6
52845.9
57988.2
61006
62901.9
64084.3
64624.3
90414.4
90861.2
91853.5
93664.8
96628.7
103307
110675
108104
23785.1
52958.5
58112.9
61066.4
62928.2
64103.3
64639.3
85133.2
85045.9
84845.6
84536.9
84494.5
88449.3
92013.4
104963
20693
33552.9
45085.2
51550.4
55782.8
58266.7
59383.4
85117.7
85027.2
84823.6
84509.5
84480.3
88409.3
91969.7
104763
4592.94
32828.1
44804.9
51456.6
55742.4
58243.1
59368.2
85084.5
84985.4
84777.8
84503.3
84443.5
88314.9
91860.9
104609
2199.79
32182.5
44673.3
51437.4
55718.8
58224.5
59351.9
85041.9
84915.9
84708.4
84568.8
87195.8
88281.4
91667.6
104457
2253.97
31810.9
44812.9
51516.5
55720.7
58216.7
59343.7
84983.6
84839
84684
86559.2
87245.8
90117.9
92782.9
104505
9022.17
32423.8
45378.7
52194.5
55781
58243.2
59348.3
84922.8
84844.7
86261.9
86504.9
88497.2
90938
92753.2
104348
2487.51
32371.4
45614.9
52186.6
56410
58316.2
59376.1
84926.8
84861.5
86192.4
86509.7
89154.2
90906.4
92766
104451
2889.52
32271.6
45613.9
52525.1
56408.6
58360.3
59412.5
84934.1
84862.9
86171.7
87501.1
89149.1
90920
92808.3
104493
2290.62
32219.4
45610.9
52731
56407.9
58400.5
59427.7
84966.3
84902.6
86193.1
87519.3
89184.1
90966.4
92871.7
104618
2840.5
32164.5
45591.2
52731
56413.5
58391.3
59446.4
85003.4
84930.9
86261.5
86622.4
89250.3
91053.2
92969.9
104746
2340.36
32098.3
45553.5
52533.9
56442.7
58374.6
59438.4
85104.3
84965.6
84831.8
86651.5
88713.5
91204.5
93115.5
104899
2404.33
32053.2
45487.4
52141.5
55844.7
58312.3
59414.5
85197
85082.7
84903
84811.8
87525.1
88809.4
92412.1
105352
2614.52
32053
44851.3
51508.1
55716.5
58254
59394.2
85268
85182.8
85006.1
84782.9
84798.7
88728.7
92390.3
105388
2560.51
32117.4
44495
51293.8
55676.8
58238.5
59388.6
85319.2
85244
85074.4
84817
84863.3
88858.6
92582.6
105551
2433.54
32142.1
44506.2
51276.1
55671
58236.9
59392.1
85344.3
85273
85108.3
84859.1
84893.9
88953
92687.6
105652
5161.81
32217.3
44610.1
51294.6
55678.4
58246.1
59398.3
79910
79249.6
77877.5
75692.4
75338.1
74238.9
76705.2
2167.49
24587.1
37421.1
45244.2
50655.1
53906.5
55418.9
79898.9
79235.3
77859.8
75672.6
75304.5
74200.3
76664.7
2188.59
24295.9
37220.7
45165.9
50611.7
53884.1
55407.3
79881.1
79216.3
77829.4
75651.4
75316.7
74172.9
76578.7
2231.56
23491.7
37032.1
45086.6
50577.6
53879.7
55405.9
79873.9
79203.6
77805.5
75803.3
75605.8
74096.3
76418.8
2268.91
22854.5
35826.9
45207.9
50612.3
53912.3
55430
79879.9
79212.5
77952.5
77854
76190.2
76178.7
77119.1
2301.91
21064.2
35530.7
44883.7
50728.7
53999.6
55486.7
79891.6
79354.8
79421.9
78152.5
77550.4
77181.5
77138.2
2242.32
21609
35435
45001.7
50680.4
54073.9
55574
79927.7
79412.4
79402.1
78263.9
78365.4
77263.2
77209.1
2290.67
21833
35594.4
44867
50775.4
54130.5
55636.9
79941.5
79431.3
79406.7
79147.4
78483
77306.9
77254.7
2365.48
21935.6
35694.7
44842.6
50818.1
54194.5
55677.3
79965.3
79449.3
79421.5
79177.4
78505.3
77323.7
77259.3
2336.53
21975.1
35740.5
44887.1
50860.4
54218.9
55719.7
79971.1
79436.4
79468.9
78332.9
78438
77339.4
77285.2
2315.84
21888.7
35733.3
45004.4
50896.5
54241.7
55731.4
79999.8
79335.3
78088.7
77997.6
77648.9
77346.8
77350.8
2308.43
21870.5
35699.5
45195.8
51000.2
54227.7
55688
80030.3
79368.4
77989.4
76022.4
75907.2
74561
76566
2314.42
22707.6
36565.3
45587.3
50877.7
54145.2
55642.7
80066.6
79411.7
78046.2
75904.4
75603.7
74501.8
76947.2
2358.89
24059.6
37456.4
45350.9
50809.2
54094.8
55616.5
80103
79450.6
78099.5
75956.2
75652.5
74603.8
77138.1
2372.98
24285.9
37380.3
45322.7
50786.1
54074.5
55606
80124
79475.4
78129.2
75991
75651.4
74678.1
77266.7
2390.6
24469.2
37446
45313.7
50785.4
54075.1
55605.5
75444.8
74253.5
71757
67400.4
65121.2
57635.4
53424.6
4811.76
2178.22
23343
34997.2
43088.5
48624.4
52002.3
53619.5
75432.8
74235.3
71724.7
67344.5
65056
57545.8
53311.4
2263.14
2186.25
23321.4
34845
43027.9
48571.3
51974.2
53602.4
75417.3
74216.3
71672.3
67235.8
64971.3
57406.9
53193.9
2272.78
2217.71
19216.3
34676.1
42864.1
48494.3
51950.4
53589.6
75421.5
74221.7
71600.7
67188.7
64895.1
57242.8
53124.1
2288.66
2299.99
19059.1
31857.8
42782.6
48472.9
51964
53605.6
75459.6
74248.9
71589.6
70157.5
64705.3
60119.2
55007.3
2254.94
2284.21
16204.3
30756.3
41272.4
48538.7
52056.3
53665.9
75509.4
74318.8
73542.5
70075.7
66683.1
61485.2
55163.4
2269.13
2277.9
17172.2
30436.8
41394.8
47666.3
52147.6
53772
75550.9
74357.3
73568.1
70015.9
67577.1
61578.9
55422
2732.2
2313.23
17771.9
30749.2
40794.3
47805.6
52228.5
53856.4
75565.4
74380.2
73572.7
71387.5
67599.5
61627.6
55515
8403.83
2299.48
18013.4
30976.9
40575.9
47922.5
52323.7
53929
75587.3
74391.5
73590.1
71414.1
67601.4
61588.9
55309.8
2205.63
2300.59
18158.9
31099.9
40680.4
48007.4
52387.7
53999.4
75586.3
74393.2
73628.9
70079.2
67626.2
61554.5
55239.7
2309.03
2343.78
18132.9
31131.3
41119.5
48060.2
52446.4
54044.8
75577.8
74367.3
71713.1
70264.5
66794.3
61567.5
55245.5
2320.25
2342.79
18041.8
31133.9
41902
49053.8
52472.1
54029.8
75577.4
74382.3
71772.2
67376.1
65019.1
57469.5
53422.9
2285.42
2310.6
18906.5
32932
43489.4
49013.4
52417.6
54012.4
75601.7
74406.2
71874.9
67461.7
65140.1
57639.1
53507.3
2439.6
2366.36
19805.3
35336.8
43411.9
48991.3
52388.7
54004.9
75635.3
74444.2
71947.5
67594.6
65308.8
57844.3
53678.5
3255.83
2382.06
22864.7
35198.5
43399.2
48977.8
52380.1
54003.7
75656.7
74471.9
71989.2
67661.2
65394.8
58021.2
53941.5
2562.84
2408.18
23222.3
35274
43402.5
48990.5
52383.9
54007
72549.9
70946.1
67548.5
61556.1
51237.6
41751.1
17444.2
2277.28
2187.52
25354
36579.3
44313.9
49518.7
52685.2
54205.7
72526.6
70910.6
67476.6
61424.1
51003.5
41493.6
17292.8
2243.31
2191.42
25130.8
36378.4
44202.8
49436.6
52641.7
54176.1
72493.7
70867
67383.2
61272.2
50732.4
40988.5
17070.2
2251.05
2222.05
20579.1
35977.3
43938.9
49301.4
52578.1
54136.7
72475.7
70854.9
67277.9
61137.7
55132.2
40547
17019.5
2270.16
2287.81
19469
31742.9
43637.5
49172.3
52535.9
54122.1
72499.2
70883.5
67286
63781.8
55124.3
44355.8
23439.5
2283.02
2279.46
14824
29813.2
41060.2
49177.9
52604
54166.9
72552.1
70927.2
69028.6
63826.8
57412.3
46320.8
24449
2303.46
2281.24
15689.8
29243.8
41151.9
47552.9
52721.5
54284.2
72586.8
70953.2
69119.3
63847.7
58481.3
46529.9
24824.4
2280.84
2296.47
16748.7
29742.7
40187.6
47715.1
52839.1
54394.3
72601.5
70975.8
69150.7
65250.1
58485.5
46611.9
24925.7
2303.98
2249.99
17350.8
30164.5
39845.9
47898.3
52971.2
54504.5
72623.1
70985
69157.4
65253.8
58458.7
46509.4
24596.5
2302.61
2277.52
17482.1
30376.5
40020.5
48038.9
53073.5
54602.7
72628.8
70998.1
69162.6
63855.4
58457.8
46390.4
24473
2274.45
2345.04
17432.6
30436.1
40730.9
48136
53157.9
54679.1
72620.2
71000.3
67400.1
63967.3
57442.9
46326.5
24390.2
2296.41
2288.25
17431.9
30473.1
42015.1
49933.7
53204.2
54703.8
72636.1
71016.2
67443.1
61304.5
55294.7
40793.3
18926.2
2292.28
2316.21
18562.4
33075.2
44633
49967.4
53200.7
54727.4
72681.8
71056.4
67575.6
61468.5
50934.2
41042.7
17351
2278.63
2374.24
20296.9
36696.8
44704.6
50016.9
53226.2
54754.1
72731.5
71116.2
67682.3
61630.7
51205.1
41502.6
17502.3
2288.73
2389.2
24708.9
36853.7
44717
50037.4
53247.8
54774.8
72762.5
71158.2
67757.1
61758.1
51411.9
41900.5
17688.5
2283.24
2415.32
25244.6
36946.7
44773.3
50076.3
53266.6
54790.3
71859.7
70188.2
66623.8
60585.2
49918.5
39317.7
6220.08
2279.03
6079.52
31628.9
41776.2
48580.7
53024.7
55684.7
56955.8
71819
70127
66497.2
60302.3
49491.5
38302.7
4161.06
2205.44
11831.3
31657.4
41602.5
48398.4
52902.2
55619.7
56911.9
71762.7
70051
66346.7
59979.1
49661.3
36463.9
6238.81
2248.21
6085.02
23906.2
40803.2
47972.6
52687.3
55515.2
56847.1
71721.1
70014.5
66247
59828.3
51784.8
35234.8
7613.91
2278.44
2247.46
21573.3
35308.8
47545.4
52465.4
55423.6
56805.2
71732.6
70053.3
66333.5
61426
51570.9
37957.3
16688
2281.33
2276.52
16059.2
32510.1
44165.1
52472.2
55473.8
56840
71789.8
70140.6
67340.7
61482.1
53261.1
39407.3
17053.1
2278.43
2284.13
16735.5
31630.2
44289.1
50285.2
55638.7
56973.8
71827.9
70183
67439.8
61632.2
54192.7
39905.8
18860.1
2288.91
2283.35
18409.2
32425
43059.3
50510.2
55805.6
57112.7
71850.6
70210.8
67511.9
62631.1
54299.3
40181.7
18680.6
2310.82
2283.9
19738.9
33173
42663.1
50772.2
55980.1
57259.2
71867.6
70215.8
67510.5
62610
54223.9
39940.1
17953.2
2277.55
2291.82
19941.7
33487.1
42912.3
50959.9
56116.3
57381.9
71873.8
70217.7
67455.1
61574.8
54075.9
39523
17189.4
2301.98
2288.64
19749
33498.9
43835.4
51082.8
56211.8
57479.1
71867
70181.7
66458.5
61587.6
53217
39322
17180.9
2301.44
2318.2
19764.5
33506
45519.4
53466.6
56249.5
57526.5
71897.9
70191.4
66426.4
60005
51783.8
35872.6
16372.2
2280.01
2328.69
21230.2
36995
48869.1
53499.9
56275
57577.9
71966.5
70253.9
66545.7
60169
49787.9
35872.8
7042.65
2293.36
2384.77
23829.9
41800.7
49001.4
53611.3
56346.3
57636
72037.4
70341.7
66698.5
60472.8
49650.4
38174.6
4876.32
2291.3
2629.39
31217.5
41989.7
49052.6
53689.8
56398.9
57679.3
72083.4
70404.6
66813.6
60725.9
49913.7
39112
4427.45
2283.52
3606.65
31633
42169.4
49185.8
53763.2
56437.4
57709
73618.5
72344.3
69656.2
65470.3
56741.8
48346.7
15614.2
2364.15
31135.4
46886.3
51326.4
55928.2
58840.9
60595.1
61453.1
73560.1
72250.8
69456.3
64955.9
55554.4
45792.3
2233.05
2275.99
28671.4
45319.3
50853.1
55617.6
58671.3
60508.7
61397.2
73482
72137.4
69243.6
64343
56891.7
42544.1
11948.4
2301.67
13137.6
34685.2
49852.5
54993.9
58371.8
60372.1
61315
73420.2
72048.3
69041
63982.1
55927.6
40696.5
12677.7
2278.4
2287.43
30041.7
43336.5
54473.3
58073.1
60254.7
61259
73420.3
72056.2
69078.6
63934.4
55087.1
40905.8
18276
2242.89
2254.81
21588.5
39690.9
50612.6
58137.8
60306.3
61297.5
73476.8
72165.7
69080.3
63873.7
55617.9
41494.7
18128
2267.39
2266.19
21984.4
38548.7
50867.4
55629.2
60547.9
61458.9
73520
72226.1
69160.8
64112.5
56334.8
42592.1
18830.6
2289.79
2290.01
25103.8
39952.7
49591.7
55942.9
60767.6
61626
73552.6
72264.9
69251.4
64500.4
56730.7
44008.1
21958.3
2307.63
7306.19
27794.3
41297.6
49275.1
56322.7
60984
61803.4
73568.4
72266.6
69246
64451.5
56551.3
43351.7
20558.4
2314.67
5009.21
27882.2
41623.6
49577.4
56539.4
61140.2
61944.9
73579.3
72263.8
69173.4
64001.6
56080.1
41866.6
18490.2
2297.45
2314.22
26977.8
41289.2
50552.9
56634.2
61236.1
62054.8
73582.4
72217.8
69243.2
64000.2
55564.5
41364.9
17959.8
2292.99
2342.34
26623.3
41081.8
52437.7
59357.9
61234.6
62104.6
73629.6
72264.2
69269.1
64227.3
55596.9
40571.9
17596.9
2309.55
2354.48
28848.1
45412.5
56181.9
59350.6
61270
62166.5
73718.9
72376.9
69483.5
64579.2
57016.6
41738.5
12137.6
2329.73
7366.81
34193.8
51426.6
56375.5
59515.6
61369.8
62246.7
73809.9
72498
69687.9
65142.2
55689.9
45573.1
2487.62
2351.05
28187.1
46793.1
51569.2
56582.7
59665
61445.5
62307.4
73871.6
72588.6
69860.3
65577.7
56597.2
47164.3
12349
2560.85
31646.6
47787.5
52033.3
56821.3
59780.4
61504.9
62349.8
77370.5
76831.2
75755.6
75352.5
73415.7
82129.7
113232
115135
84137.9
70229.2
65443.8
65954.3
66342.7
66826.1
67133.7
77301.5
76709.4
75511.2
74672.1
71999.9
79504.1
108478
93743.2
76569.4
67571.7
64452
65456
66123.2
66723.9
67071.9
77208
76551.6
75230.6
73237.7
71380.7
63880.7
62129.8
41067.4
46627
55284
62842.8
64507.4
65758.3
66569.7
66982.2
77126.8
76407.2
74872.9
72559.2
66379.1
57691.2
38057.5
11210.9
13448.1
48231.7
56352
63899
65415
66448.8
66923.1
77111
76362.1
74795.3
70655.2
65153.2
53951.8
30078.8
2253.72
2278.83
36765.9
52299.3
60110.5
65466.1
66496.5
66966.4
77165.9
76476.2
73715.6
70455.1
64232.7
52746.8
27579
2261.65
2287.99
37298.5
51222.7
60491.7
63024
66715.9
67148.3
77209.8
76544
73716.8
70781.7
64643.4
55549.1
34123.7
2255.08
12523.4
44056
53868.6
59422.9
63427.6
66945.7
67325.6
77250.6
76595.5
73818.7
70402.5
65443.6
60237.7
68327.5
2289.7
11540.8
50585.9
56548.5
59370.2
63912.1
67178.8
67518.9
77271.9
76602.6
73816.6
70344.1
65113.6
57750.9
41688.2
1929
16450.7
49047.7
56518.7
59696.5
64158.3
67345.6
67671.3
77296.7
76611.4
73765.5
70681.4
64274.4
53737.5
29647.1
2325.84
13694
44645.3
55064.9
60568.7
64239.2
67460.7
67796.2
77314.5
76580.8
75059
70638.2
64347.5
52860.8
28058
2274.07
15456.1
43069
54326.6
62398.6
66798.1
67515.7
67847.9
77384.4
76687.1
75202.6
72983.1
65985.3
56795.8
31263.8
2331.46
11090.2
46618.5
59099.3
65804.8
66856.6
67575
67921.6
77494.9
76854.5
75560.7
73621.9
71779.9
60253.5
44723.8
21907.4
38352.1
55304.3
65015.6
66211.6
67085.1
67692.7
68014.4
77600.9
77017.5
75826.5
74951
72326.1
78602.6
109286
81915
77376.9
69430.9
65745.5
66816.3
67310.4
67791.7
68089.7
77672.9
77136.9
76048.8
75540.7
73666.8
80830
113166
104406
81736.8
70764.3
66455.2
67147.9
67461.3
67866.9
68141.1
82066.2
82270
82565
85022.3
87663.8
93229.5
110362
104245
99917.5
85719
78752.8
75954.7
74114.9
73463.5
73236.3
82018
82177.1
82455.3
84748.2
87571.6
93965.3
119780
117854
99208.2
84765.6
78009.3
75536
73926.2
73373.1
73183.8
81943.8
82005.6
82297.5
83238.5
86396.7
88771
110140
132010
101022
81326.2
76313.7
74531.2
73600.1
73228.4
73105.5
81873.8
81868.2
81939.2
82539.2
80963
85178.9
100388
126709
91275.4
76745.2
72543
73823.7
73289.1
73124.5
73055.3
81855.4
81797.9
81735.4
79757.8
79491.6
77341.7
74358
53938.8
50529.8
65793.6
69061.8
71048.7
73226.8
73152.4
73089.5
81908.5
81802.6
80078.6
79448.8
77142
73487.8
61539.1
2335.28
38263.2
64470.2
67654.2
71112
71295.1
73264.7
73242.7
81949
81843.6
80081
79542
76575.2
74745
65964.7
2447.05
66765
76275
70194
70329.4
71645.1
73455.8
73400.8
81996.7
81900.2
80162.8
78564.2
77170.6
77332.3
79797.8
19235.3
124399
103557
74516.4
70836.7
72054.5
73677.4
73590.7
82028.4
81927.5
80192.6
78570.5
77026.1
76127.7
72549.1
1552.96
78232.1
88380
74437.5
71412
72382.4
73853.2
73745.8
82071.4
81982.8
80208.5
79666.2
76544.6
74335.8
65538.5
12352.6
80382.8
74444.7
72377.7
71965.4
72586.1
74009.2
73891.8
82103.5
82077.5
82099.9
79863.5
77655
74649.5
67101.7
24493
60190.3
72563.4
72003.6
73273.8
74532.6
74164.7
73977.7
82183.3
82218.8
82386.2
83144.7
81096.9
84097.3
86095.4
90123
78729.7
77152.4
75564.7
75717.8
74730.7
74263.4
74073
82286.7
82387
82761.8
83865.6
87460.6
89014.6
111053
144893
109453
84308.6
78804.4
76373.6
74992.9
74395.3
74171.5
82374.9
82564.1
82915.7
85262.2
88612.9
94245.4
121779
123318
104313
87122
79706.1
77078.1
75198.7
74501.8
74247.2
82429.5
82661.6
83041.8
85517.1
88940.5
93910.2
116089
113103
101248
87336.1
80074.8
77290
75313.9
74566.9
74293.1
86477.4
87045.7
87710.1
90115.7
92588.2
92204.7
95499.8
97959.8
97612.5
89477.5
86021.6
82935.6
80545.8
79446.4
78916.8
86500.5
87064.6
87871
90491.3
93789.1
94219.3
100310
101164
97513.4
90338.2
86137
82912.5
80513.8
79418.8
78901.4
86521.6
87004.6
88101
90190
93918.7
96206.2
101453
112256
99803.3
91791.5
85853.8
82534.3
80418.9
79351.7
78874.2
86536.6
87001.3
88058.1
90395.6
91549.6
98549.8
110797
127791
109406
92533.9
85038.7
82154.9
80263.2
79303.8
78863.4
86556.3
86975.9
87928.4
88276
91438.9
96884.8
112587
154096
116750
91924.4
83548.7
80681.5
80125.8
79303.5
78890.7
86608
86913.1
86650.1
87969.6
89624.7
94650.2
112019
181903
114579
87070.2
81733.8
80446.1
79007
79320.6
78993.7
86658.5
86943.8
86711.8
87900.7
88761.2
93504.7
103266
128213
28426.2
66422.4
79961.3
79916.5
79267.2
79463.9
79126.7
86719.6
87009.1
86790.8
87175.2
88758.4
92476.9
92110.8
51932.6
55384
4211.88
80617
80415.1
79579.9
79661.1
79306.1
86754.5
87052.1
86859.4
87238
88891.7
93019.5
96659.8
76311
2634.17
71335.5
83988.3
81256.6
79917.6
79843.6
79457.7
86796.3
87126.2
86905.1
88200.1
89123.7
94372.3
104996
116970
125612
93932
85892.2
81914.3
80205.2
80017.3
79609.1
86835.8
87298
88371.8
88625.9
90326.9
95788.6
113199
166445
119045
96714
86630.9
82746.7
81410
80255.4
79728.6
86879.9
87395.8
88576.2
91125.9
92525.8
100702
115726
154490
120574
97084.3
87585.3
83963.3
81609.7
80374
79826.3
86902
87437.6
88658.6
90932.4
95251.9
99058.2
108283
122915
106647
95873.9
87918.3
84219.2
81726.6
80462.2
79893.7
86896.1
87499.4
88430.5
91089
95077.9
95481.8
102219
105694
100639
92528.9
87862.1
84390.5
81733.5
80509.7
79928.9
86884.4
87491
88315.8
90726.4
94207.2
93876.6
97993.9
101804
98825.2
91834.7
87451.4
84275.3
81718.3
80519.9
79943.2
89909.6
90472.9
90952.1
92257.5
94202.6
93860.9
95608.2
101020
96381.7
91088.4
89635.8
87062.4
85179.1