/*--------------------------------*- C++ -*----------------------------------*\
| =========                 |                                                 |
| \\      /  F ield         | OpenFOAM: The Open Source CFD Toolbox           |
|  \\    /   O peration     | Version:  v2012                                 |
|   \\  /    A nd           | Website:  www.openfoam.com                      |
|    \\/     M anipulation  |                                                 |
\*---------------------------------------------------------------------------*/
FoamFile
{
    version     2.0;
    format      ascii;
    class       volScalarField;
    location    "0.05";
    object      p;
}
// * * * * * * * * * * * * * * * * * * * * * * * * * * * * * * * * * * * * * //

dimensions      [1 -1 -2 0 0 0 0];


internalField   nonuniform List<scalar> 
449343
(
105015
105134
105329
105502
105548
105229
104374
102908
100889
98530.5
96128.7
93960.3
92218.3
91013.1
90399.6
104997
105116
105311
105484
105529
105207
104351
102885
100867
98510.4
96109.8
93941.3
92198.4
90992.4
90378.4
104981
105100
105295
105466
105508
105183
104323
102857
100841
98489.2
96091.6
93923.1
92178.6
90970.8
90355.7
104966
105086
105280
105449
105487
105155
104291
102823
100811
98465.3
96073.7
93906.2
92159.2
90948.7
90332.2
104953
105073
105266
105434
105466
105124
104255
102785
100778
98440.2
96056.7
93890.4
92140.4
90926.6
90308.8
104941
105061
105254
105422
105443
105096
104223
102753
100750
98419.7
96042
93875.9
92122
90905
90284.5
104929
105049
105242
105409
105422
105072
104196
102724
100726
98402.3
96025.5
93860.9
92103.3
90881.9
90259.7
104917
105036
105229
105395
105405
105052
104170
102696
100697
98379.3
96004.6
93839.5
92080
90857.4
90234.5
104904
105023
105215
105380
105390
105037
104158
102685
100684
98357.1
95978.3
93812
92053.2
90831.3
90208.8
104889
105008
105199
105364
105378
105026
104148
102673
100665
98330.8
95948.7
93779.6
92023.5
90804.4
90183.3
104874
104992
105182
105347
105366
105019
104143
102665
100651
98307.1
95917.7
93747
91993.8
90777.9
90158.6
104857
104975
105165
105330
105355
105014
104141
102663
100642
98288
95889.5
93716.6
91965.8
90752.9
90135.4
104841
104958
105147
105313
105343
105007
104135
102657
100631
98269.1
95863.6
93689
91940.2
90729.7
90113.4
104823
104940
105129
105295
105328
104995
104125
102646
100616
98249
95839.6
93664.3
91916.8
90707.9
90092.6
104805
104921
105110
105276
105311
104979
104110
102630
100598
98228.7
95817.7
93642.3
91895.5
90687.4
90072.6
104881
105048
105343
105670
105890
105793
105070
103536
101260
98559.1
95856.8
93489.2
91637.5
90379.5
89745.5
104863
105030
105326
105652
105871
105771
105045
103512
101238
98540.1
95839
93470.5
91617.2
90357.9
89723.3
104847
105015
105310
105636
105853
105748
105016
103483
101213
98521.8
95824.3
93453.6
91596.7
90334.8
89699
104833
105001
105297
105621
105834
105716
104977
103439
101180
98500.4
95812
93439.2
91576.7
90310.9
89673.3
104820
104989
105285
105608
105816
105677
104932
103391
101122
98477.4
95803.8
93427.9
91557.8
90286.7
89646.8
104808
104978
105276
105598
105800
105649
104894
103355
101098
98460.9
95798.5
93419.3
91540.1
90262.8
89620.2
104797
104967
105266
105586
105780
105630
104866
103324
101075
98452.9
95803
93412.4
91521.7
90239
89594
104786
104956
105253
105573
105764
105608
104836
103249
101040
98426.4
95783.2
93392.3
91498.2
90213.9
89567.9
104773
104942
105239
105558
105749
105595
104829
103286
101034
98406.8
95754.5
93362.8
91471
90187.5
89542.2
104759
104927
105222
105541
105738
105581
104819
103276
101014
98371.3
95704
93321.4
91439.6
90160.7
89517.5
104744
104911
105203
105520
105721
105574
104820
103271
100996
98342.9
95662.7
93282
91408.5
90135.4
89494.6
104728
104894
105185
105503
105707
105578
104827
103278
101007
98320.7
95625
93246.5
91380.2
90112
89473.4
104712
104877
105167
105485
105693
105573
104830
103284
101001
98299.1
95593
93216
91354.8
90090.4
89453.5
104695
104860
105149
105466
105676
105562
104821
103272
100985
98275.5
95565.2
93189.8
91332
90070
89434.2
104677
104841
105130
105447
105658
105546
104807
103258
100967
98254
95542
93167.4
91311
90050.2
89415
104536
104811
105333
106021
106707
107171
106845
105139
102176
98578.3
95139.5
92320.7
90231.3
88861
88184.4
104518
104793
105316
106005
106690
107150
106818
105114
102155
98562.2
95124
92301.9
90209.4
88837.3
88160.1
104501
104778
105303
105993
106677
107128
106783
105083
102130
98553.9
95118.1
92286.6
90186.2
88810.3
88131.6
104487
104765
105293
105986
106668
107095
106717
105030
102064
98539.8
95123.8
92277.7
90163.3
88781
88100.1
104474
104755
105287
105983
106658
107039
106602
104902
101957
98545.1
95137.2
92273.9
90142.2
88750.9
88066.9
104464
104748
105285
105982
106659
106990
106546
104866
101934
98549.8
95167.3
92277.3
90122.5
88721.4
88033.9
104454
104740
105279
105982
106634
106978
106508
104823
101904
98545.2
95264.2
92287.7
90107.1
88694.1
88002.8
104444
104730
105270
105973
106625
106971
106507
104841
101869
98519.1
95241.7
92267.1
90082
88667.1
87974.4
104433
104717
105255
105955
106604
106944
106470
104784
101862
98498.3
95213.7
92235.4
90053.2
88639.7
87948.4
104420
104703
105238
105930
106601
106924
106471
104784
101848
98457.5
95069.4
92174.9
90016.9
88614.4
87926.4
104407
104685
105213
105901
106566
106937
106492
104781
101827
98405.9
94990.1
92121.2
89985.9
88592.9
87908.3
104393
104669
105191
105876
106548
106959
106568
104867
101888
98353.8
94928.9
92076.6
89958.4
88574.2
87892.7
104379
104653
105172
105853
106526
106960
106598
104882
101912
98323.5
94877.7
92039.6
89935.2
88557.3
87877.9
104364
104636
105153
105831
106504
106946
106596
104873
101896
98289.2
94840.4
92011.3
89914.7
88540.6
87862.5
104347
104619
105134
105812
106484
106930
106584
104858
101877
98264.3
94814.6
91988.7
89895.2
88522.8
87845.4
103849
104281
105146
106415
107959
109493
110314
108276
103807
98330.6
93646.3
90204.2
87836.3
86354.8
85644.6
103829
104263
105129
106401
107945
109475
110275
108249
103781
98316.9
93631.7
90182.5
87810.2
86327.2
85616.5
103811
104246
105117
106396
107945
109464
110242
108235
103794
98343
93638.2
90163.7
87779.3
86292.5
85580.8
103794
104233
105111
106404
107952
109469
110029
108197
103638
98411.1
93683.1
90153.3
87745.6
86252.2
85538.9
103780
104224
105114
106416
107977
109388
109226
107877
104423
98547.3
93753.8
90159.6
87711.7
86208.3
85493.1
103770
104220
105129
106469
108041
108578
109081
107817
104444
99793.9
93860.3
90174.8
87681.2
86163.2
85447
103761
104217
105136
106478
107378
108593
109024
107741
104380
99792.6
95167.8
90183.9
87652.4
86125.4
85405.8
103752
104211
105134
106475
107364
108595
109026
107627
104350
99775.8
95124.9
90157.8
87630.3
86096.7
85371.8
103744
104199
105114
106453
107346
108567
108986
107685
104334
99749.1
95105.4
90126.7
87592.3
86065.5
85346.6
103737
104186
105092
106426
107987
108520
108983
107699
104325
99720.1
93757.5
90063.6
87566.3
86047.7
85331.5
103728
104168
105052
106343
107894
109295
109090
107739
104332
98400.3
93595.2
89993.7
87542.7
86038.8
85323.8
103720
104156
105028
106310
107843
109336
109880
108024
103455
98212.9
93473.7
89936.7
87526
86032.1
85319
103711
104142
105005
106273
107806
109309
110058
108030
103564
98097.6
93381.2
89900.1
87512.9
86025.5
85313.8
103699
104129
104987
106247
107775
109285
110058
108002
103511
98027.9
93330.5
89874.8
87499.8
86016
85305.3
103684
104113
104969
106226
107753
109266
110056
107989
103496
97999.7
93303
89854.8
87484.3
86002
85291.8
102617
103223
104483
106492
109309
112849
116600
113786
106273
97059.2
90675
86739.4
84259
82795.4
82122.8
102595
103201
104464
106476
109298
112839
116560
113762
106254
97051.6
90655.8
86707.9
84224.5
82761.4
82089.2
102571
103180
104448
106475
109321
112864
116539
113747
106303
97096.2
90658.8
86668.9
84176.3
82714
82042.6
102547
103161
104442
106517
109450
112974
114185
113793
107885
97504.9
90783.7
86643.1
84115.4
82653.8
81984.6
102526
103144
104448
106554
109500
111459
114115
113676
107933
99793.7
90902.7
86609.6
84046.9
82583.1
81918.3
102510
103142
104489
106731
108616
111603
114076
113488
107809
99996.9
93118.1
86641.2
83956.8
82511.4
81850
102496
103129
104484
106147
108670
111664
113119
112780
108139
100979
93264.3
88476.1
83841.4
82432.5
81787.7
102493
103133
104542
106145
108700
111682
113111
112731
108132
100989
93300
88493.9
83904.9
82391.5
81750.4
102488
103118
104465
106121
108674
111659
113072
112723
108094
100967
93260.3
88455.7
83769.9
82363
81720.5
102494
103125
104469
106699
108562
111545
113139
112734
108080
99951.3
93087.6
86513.7
83829
82383.9
81723.1
102496
103110
104406
106500
109428
111405
113952
113398
107670
99755.5
90725.1
86419.6
83857.3
82396.8
81734.1
102502
103112
104386
106447
109361
112853
114013
113597
107797
97286.2
90550.2
86401.9
83874.3
82415.5
81748.2
102503
103108
104367
106379
109205
112724
116358
113562
106059
96826.2
90375.7
86380.7
83888.4
82428.4
81758.6
102500
103102
104355
106354
109156
112672
116344
113514
105968
96736.3
90327.7
86375.6
83892.7
82431.7
81761
102489
103090
104341
106334
109132
112645
116347
113499
105942
96697.2
90302.5
86364.7
83885.6
82424.2
81753.1
100593
101324
102904
105620
109955
116790
122318
127577
113750
92453.2
85034.8
81387.8
79255.9
78121.3
77637.3
100565
101296
102878
105599
109946
116781
122291
127539
113707
92410.4
84990.3
81334.6
79208.1
78078.9
77597.3
100531
101262
102847
105571
109944
116810
122249
127483
113632
92332.4
84897.1
81229.1
79129.9
78013.8
77537.6
100492
101228
102826
105606
110299
114595
122287
127508
113570
96812.9
84924.3
81053
79014.4
77926.5
77459.6
100451
101182
102784
105650
109055
114833
122520
125031
114898
97452.9
88156
80856.4
78822.8
77805.4
77365.8
100421
101147
102823
105213
109125
113845
120692
123871
114813
99718.4
88225.8
83207.5
78610.2
77665.6
77265.6
100393
101105
102801
105236
109231
113853
119725
123780
115247
100621
89908.9
83179.3
78422.9
77532.9
77174.2
100385
101086
102794
105290
108579
113316
119700
123704
115175
100635
89860.2
83133.2
80339.9
77450.2
77122.6
100396
101108
102802
105255
108562
113778
119680
123692
115186
100639
89838.8
83066.4
78339.7
77457.4
77099.9
100428
101152
102821
105172
109180
113821
119645
123737
115238
100604
89861.8
83089.7
78456.9
77519.6
77123.9
100453
101182
102773
105628
108995
114785
120495
124736
114712
99461.8
88061.7
80622.9
78602.3
77596.5
77162.4
100486
101220
102811
105572
110239
114523
122160
127305
113348
96747.1
84648.1
80774.4
78745.1
77665.4
77203.2
100507
101235
102809
105517
109864
116689
122083
127250
113363
92024.6
84575.7
80907.7
78815.2
77706.3
77234.3
100518
101245
102818
105522
109845
116637
122077
127274
113385
92048.9
84622.9
80970.4
78850.9
77728.4
77250.7
100514
101240
102811
105509
109819
116611
122093
127288
113388
92028.6
84616.9
80979.5
78857
77729.7
77249.6
97554.4
98263
99848.4
102745
107702
114516
130969
160818
117868
84879.4
74734.8
73421.9
72668.8
72414.7
72340.9
97518.4
98225
99807
102699
107659
114479
130912
160757
117710
84752.1
74636.3
73336.5
72608
72365.1
72296
97466.2
98165.6
99735.7
102596
107511
114402
130763
160632
117561
84618.5
74424.9
73174.5
72502.9
72283.3
72226.2
97402.1
98093.2
99646.6
102351
106832
114687
130698
160398
117268
84604.2
77706.3
72753.8
72331.6
72167
72132.8
97322.1
97985.5
99442.9
102370
106814
113740
127641
160118
118146
88457.7
77314.2
74822.2
71996.6
72004.9
72016.6
97248.8
97839.2
99867.8
102403
106514
113650
126127
154950
122887
90357.7
79448.4
74582.9
73562.3
71811.3
71894.8
97209.7
97789.3
99849.5
102380
106506
113167
125924
154662
122715
90241
80587.8
75998.3
73395.6
71713
71801
97191.4
97770.5
99902.6
102393
106485
113098
125799
154476
122704
90185.5
80478.6
75889.9
73332
71661.6
71720.9
97230.7
97809.8
99870.9
102419
106502
113086
125763
154420
122935
90238.1
80451.1
75847.2
73254.9
71623.7
71715.7
97289.9
97878.5
99892.4
102375
106517
113128
125834
154507
123030
90286.1
80476.8
75869.8
73312.8
71636.8
71731.9
97369.6
98032.1
99485.5
102373
106778
113643
126021
154744
122819
90241.1
79359
74438.7
71735.3
71767.1
71789.5
97450.6
98139.4
99687.2
102371
106688
114514
127548
159950
117153
88488.5
77257.1
72425.4
72025.7
71879.1
71854.3
97503.3
98200.2
99762.3
102611
107499
114309
130590
160256
117198
84295.7
74057.2
72813.4
72157.8
71952.9
71903.7
97534.6
98238.6
99813.3
102690
107626
114399
130715
160448
117300
84322.5
74221
72936.4
72224.7
71994.8
71932.6
97539.8
98245.2
99822.3
102702
107635
114403
130781
160525
117358
84325.7
74254.3
72974.3
72243.9
72004.2
71937.6
93435.8
93866.6
94827
96595.2
99511.8
106175
113577
111241
26723.9
54922.6
60026.4
63062
64953.7
66139.2
66678.1
93392.2
93819.2
94772.5
96525.1
99445.2
106104
113511
111111
24758.6
54541.3
59852.4
62965.8
64895.6
66090.6
66634
93323.4
93735.9
94674.3
96427.6
99291.1
105951
113353
110936
24511
54365.3
59700.2
62889.5
64817.9
66017.3
66569.4
93234.5
93615.8
94523.1
96095.6
100485
105468
113013
110671
24842.3
54451
60997.2
62848.6
64728
65924.2
66489.5
93124
93465
94273.9
97157.5
100186
105779
113666
110291
25407.4
57786.2
62474.9
64049.4
64691.7
65839.2
66399.3
93002
93326.2
95345.3
97017.1
100594
105937
113342
109760
26656.6
58156.6
63348.3
64073.1
65647.2
65797.8
66308.2
92971.5
93283.8
95313.9
96925.1
100802
105806
113109
109407
26184.5
58145.5
63322
64864.3
65512.5
65750.4
66242.4
92968.7
93270
95290.4
97539.8
100779
105731
112958
109052
26430.3
57961
63139.6
65182.1
65467.7
65705
66167.6
93015.1
93327.4
95315.5
97547.2
100787
105724
112911
108911
27502
57856.3
62986
65073
65364.7
65633.9
66140.8
93090
93411.9
95389.4
97000
100824
105795
113008
109059
30421.7
57998.1
62958.2
64587.1
65315.4
65587.2
66120.2
93231.6
93579.9
94397.4
97151
100668
105937
113250
109510
26523
57835.3
62886.7
63630.5
64368.9
65564.8
66146.2
93355.9
93738.6
94642.9
96214.3
100428
105138
112576
110156
25205.6
55915.4
60450.9
62450.8
64374.8
65608
66190.3
93439
93852.9
94789.7
96524.4
99371.7
105716
113063
110552
24482.4
54003.1
59281.1
62487.7
64446.1
65668.8
66232.7
93489.4
93916.9
94868.3
96613.2
99513.3
106051
113342
110841
24199.8
54004.9
59390.4
62535.8
64493.5
65708.1
66261.4
93502.9
93933.6
94890.7
96647.9
99545.4
106135
113457
111000
24400
54036.8
59467.3
62577.6
64510
65718.1
66267.5
88502.1
88414.4
88212.5
87899.5
87861.2
91830.2
95539.8
108750
16460.9
34048.7
46525.6
53319.7
57743.3
60318
61470
88455.8
88363.6
88156.6
87836.2
87809.5
91757.1
95469.3
108529
2968.74
33561.4
46352.6
53250.5
57699.3
60276.9
61431.3
88385.2
88281.9
88063.9
87768.9
87717.9
91605.3
95314.1
108372
3611.89
33481.3
46355.8
53261.2
57666.8
60232.9
61384.2
88298.6
88164.6
87935.5
87781.4
90395.6
91497.9
95026.4
108155
6259.01
33774.4
46564.9
53466
57682.6
60203.6
61341.3
88205
88048
87880.2
89703.4
90368.9
93243.1
95997.2
108014
4851.02
33798.2
47276.8
54187.2
57759
60216.6
61311.3
88121.7
88038.2
89380.9
89598.9
91534.7
93958
95796.2
107502
3101.36
34437.6
47726.5
54172.7
58301.6
60206.1
61276.7
88117.8
88043.4
89287.7
89573.6
92131.8
93836.4
95639.3
107213
3321.71
34730.5
47573.6
54361.5
58182.3
60143.4
61220.2
88134
88055.8
89271
90529
92098.7
93781.3
95538.8
106883
4629.5
33841.1
46972.8
54254.7
58026.2
60071.8
61142.2
88192.3
88122.2
89315.7
90555
92125.6
93793.3
95513.9
106655
2278.33
32464.9
46445.1
54029.3
57920.3
59991.6
61098.6
88263.1
88182.1
89417.1
89733.7
92202.5
93884
95603.4
106839
2254.65
32582.4
46467.9
53831.7
57906.6
59945.5
61060.5
88397
88255.7
88101.9
89791.9
91714.7
94060.5
95805.5
107292
4969.52
33242.4
46709.5
53513.2
57350
59902.9
61033.5
88513.4
88392.4
88188.3
88031.2
90613.9
91769.1
95192.8
107971
2669.58
33337.9
46215.1
52991.2
57290.9
59867.2
61029
88597.4
88504.2
88303.3
88022.3
87954.2
91698.4
95216.9
108157
4769.32
33150.2
45907.5
52842.2
57285
59880.2
61045.9
88650.2
88564.9
88366.9
88047.5
88013.4
91827.3
95436.1
108391
2498.19
33071.1
45894.4
52820.9
57299.4
59898.9
61064.1
88665.9
88583.4
88387.8
88073.2
88025.8
91910.7
95545.8
108523
2344.64
33032.7
45961.8
52834.4
57304.5
59904.3
61067.6
83447
82783.9
81398
79158.9
78771.1
77544.2
79974.2
2291.98
25883.4
39467.6
47458.3
52953.1
56223
57738.9
83400.7
82733.2
81342.7
79101.9
78706.8
77468
79897.9
2295.99
25685.9
39378.7
47425.5
52914.3
56183.3
57699.6
83337
82665.6
81258.5
79008
78649.4
77371.8
79742.7
2298.94
25522.3
39467.4
47432.8
52881.3
56145.5
57653.4
83274.3
82594.2
81155.7
79091.7
78856.9
77229.2
79495.2
2297.64
25799
38482.6
47651.1
52907.1
56132.9
57617.6
83234.1
82545.8
81253.4
81124.1
79354.2
79271.2
80132.5
2287.38
24310.5
38393.5
47357
52982.9
56165.6
57601.4
83222.4
82673
82676.3
81349.8
80662.6
80213.4
80078.8
2341.67
26305.4
38536
47326.5
52750.1
56089.3
57578.8
83249.2
82708.3
82670.8
81455.3
81450.9
80254.6
80081.7
2082.99
29826.2
38191.8
46824.7
52600.7
55979.2
57503.5
83289.4
82759.1
82707.2
82343.7
81585.7
80285.6
80078
2384.08
24002.5
36573.7
46152.4
52369.7
55884.5
57413.1
83366.8
82839.9
82778.8
82425.3
81652.8
80325.3
80064.5
2197.64
19652.9
35580.6
45796.3
52250.4
55808.4
57364.7
83434.8
82899.4
82874.9
81711.3
81650
80395.7
80118.8
2318.62
21225.6
35923.3
46001.5
52248.7
55798.7
57339.2
83524.7
82874.4
81630.3
81490.1
80965
80461
80241.4
2413.65
22816.6
36616
46430
52512.1
55823.1
57310.2
83597.2
82946
81575.3
79549.4
79336.6
77772.1
79503.3
2292.59
23931.8
37921.1
47157.3
52504.5
55796.1
57309.6
83658.7
83010.8
81644.8
79440.7
79049.3
77681.9
79886.5
2298.44
25082.6
39047.7
47034.6
52518.2
55811.6
57333.3
83702.1
83051.9
81689.6
79467.4
79079.1
77745
80045.3
2292.87
25250.4
38988.1
47042.3
52549.6
55834.6
57358.7
83715.9
83066.9
81703.8
79478
79050.9
77774.1
80126.2
2294.72
25322.2
39039
47045.2
52560.1
55844.1
57366.8
79178.3
77991.5
75493.1
71082.5
68677.4
60852.3
56351
5200.58
2293.18
25096.6
37724.9
45813
51337.8
54645.2
56224
79125
77930.8
75416.7
70984.8
68582.6
60727.8
56215
2494.28
2297.07
25145.7
37617.2
45779.9
51276.6
54589.1
56168.3
79051
77849.3
75298.1
70795.2
68432.5
60504.5
56002.5
2954.62
2297.48
21652.3
37647.5
45707.2
51186.6
54511.8
56086.9
78981.5
77778.7
75130.7
70638.5
68245.6
60219.2
55764.7
2413.5
2300.69
22033.5
35047.1
45705
51107.1
54438.2
56003.7
78952.4
77725.2
75019.8
73507.9
67908.3
63096.1
57641.6
2440.23
2290.12
20592.7
34108.4
44042.6
51038.9
54407.4
55934.4
78961.3
77740.8
76943
73374.1
69874.8
64486
57903
3394.34
2427.31
22403.5
33607.5
43784.2
49856
54270.8
55867.6
78992.2
77771.5
76954
73297.9
70772.2
64591.7
58208.5
2478.83
2289.51
16075.6
32159.7
42484.5
49619.3
54134.8
55765.6
79052
77854.5
77015.8
74759.8
70860.6
64704.2
58353.5
2306.39
2291.19
3127.29
29737.4
41355.9
49376.9
54036.2
55676
79159.6
77972.9
77142.9
74913.7
71017.9
64794.4
58102.3
2232.36
2613.39
12007.5
29354.3
41053.2
49280
53976.8
55635.1
79261.5
78097.2
77314.9
73798.2
71248.8
64944.3
58082.3
3132.57
2279.15
14583.3
30333.3
41734.2
49317.1
54001.9
55644.3
79349.4
78187.8
75641.1
74151.6
70606.9
65096.3
58156.3
2773.84
2335.08
18175
31566.5
43018.3
50609.9
54091.6
55669.4
79416.8
78267.6
75745
71414.7
68902.8
60954.4
56361.3
3051.2
2286.97
20110.4
34396.1
45260.9
50756
54144
55733.9
79482
78324.2
75855.9
71465.4
68976.9
61037.9
56421.3
2466.38
2299.26
21493.4
37351.4
45386.4
50890
54230.2
55812.6
79530.2
78368.8
75915.6
71551
69086
61148.5
56488.8
2461.44
2296.72
24826.7
37365.8
45489.6
50986.5
54298.5
55877.7
79547.8
78388.1
75938.1
71577.9
69114.4
61223.4
56564.1
2298.98
2298.58
24903.5
37483.6
45522.2
51029.7
54329.4
55905.1
76512.5
74945.2
71604.7
65655.5
55238.1
45039.3
19385.7
2321.43
2303.24
28197.7
40101.2
47613.3
52659.8
55656.5
57086.1
76440.1
74860.3
71483.7
65492.8
55007.7
44784.2
19308.1
2282.33
2303.81
28064.4
39873.2
47498.9
52543.7
55563.4
57000.4
76331.1
74733.4
71299.1
65238.5
54599.9
44190.1
19078
2298.15
2303.72
22835.6
39623.4
47283.8
52347.5
55409.5
56860.3
76212.1
74611.7
71059.5
64940.9
58704
43576.5
18936.4
2265.05
2301.89
22782.5
35505.4
46976.7
52093.5
55218.1
56691.2
76133.8
74522.4
70921.4
67324.3
58508.3
47320.6
25365.3
2281.3
2300.62
19594.7
33420.1
44067.9
51858
55071
56532.5
76114.3
74473.6
72520.4
67233.8
60659.2
49295.7
27034.7
2288.42
2616.65
18800.1
31680.1
43496.8
49837.7
54910.2
56408
76127.4
74483.9
72581.3
67211.7
61684.5
49491.7
27506.3
2362.53
2278.98
10488.6
29460.9
41542.3
49575.9
54793.8
56294
76200.2
74588.3
72700.8
68739.4
61848.9
49762
28536.2
4263.13
2257.37
2242.57
27514.5
40279.2
49416
54724.1
56226.2
76340.9
74758.3
72896.5
69008
62240.2
50178.5
27091
2295.76
2283.29
9311.41
27794.1
40141.3
49366.5
54685.5
56205.5
76495.7
74958.4
73132.9
68127
62762.2
50809.1
27347.2
2301.52
2405.75
12706.1
28911.3
41172.2
49426.4
54727.6
56254
76629.6
75123.9
71820.9
68477.6
62185.7
51080.8
27452.8
2324.39
2290.43
16262.9
30424
43179.3
51593.1
54856.9
56347.8
76743.6
75234.2
71900.3
66120.3
60095.6
45309.2
21694.4
2310.99
2300.78
19952.2
34911
46744.6
51891.6
55025.5
56502.3
76849.5
75323.3
72034.2
66189
55789.4
45147.3
20069.8
2278.45
2317.05
22713.4
39527.2
47135.8
52174.3
55217.5
56660.3
76925.2
75398.6
72125.8
66266.7
55890.6
45376.3
19765.5
2297.63
2303.17
27841.1
39822.6
47351.5
52363
55355.6
56779.6
76957.7
75435.1
72177.2
66327.8
55974.9
45589.7
19677.6
2282.3
2303.4
28137.2
40033.4
47460.5
52458.2
55421.9
56835.4
76060.5
74489.9
71118.4
65289.7
55025.2
43173.6
8278.8
2291.26
14303.1
37201.1
46481.6
52565.5
56577.7
58912
60028.9
75962.4
74373.7
70945.1
65016
54753.8
42353.6
7548.94
2253.62
15309.8
36774.6
46156.5
52343.5
56388.5
58772.2
59905.9
75808.3
74189.7
70669.3
64587.5
54633.6
40778.5
8789.2
2292.55
8196.93
28728.6
45644.4
51924.3
56061.6
58533.6
59698.5
75632
73996.1
70367.3
64200.4
56078
39474.3
9150.2
2283.07
2630.24
27799.6
40279.4
51363.1
55631.1
58225.8
59443.6
75494.9
73850.9
70210.7
65292
55447.5
41369.5
18652.5
2275.25
4234.52
22228.7
36936.9
47627
55288.9
57981.2
59212.3
75430.8
73780.8
70954.3
65024.5
56625.5
42300.8
18810.2
2289.48
2627.6
19704.2
34227.2
47009.2
52801.9
57851.1
59069.9
75413.4
73758
70957.8
64953.1
57240.6
42205.6
18914.4
2188.45
2430.26
12642.3
32299.9
44924.8
52725.8
57810.7
58988.1
75487.7
73862
71107.1
66119.1
57504.1
42682.7
18603.7
2235.35
2229.55
9252.78
31363.4
43842.9
52802.6
57810
58963.2
75647.8
74072.2
71370.2
66509.6
58323.8
44553.5
24322.8
2228.23
2201.13
12182.5
31499.3
43770.2
52752.1
57781.5
58953
75847.7
74336.3
71680.9
66388.5
59420.2
47227.4
27720.6
2464.42
2242.57
10908.2
31813.2
44765.8
52666.6
57799.3
59006.4
76034.8
74539.2
71307.8
66880.1
59593.3
48184
29061.7
2233.16
2338.46
16722.6
33531.8
47111.9
55268.4
57909.8
59131
76200.9
74691.8
71373.2
65737.7
58147.1
43011.8
20525.6
2305.85
4245.26
24094.2
39796.1
51457.2
55629.7
58162.6
59350.6
76357.9
74836.3
71528.2
65781.3
56318.7
42289.9
13059.9
2302.33
9342.21
28771.2
45903.4
52014.7
56043
58445.2
59579.2
76473.5
74958.5
71680.8
65959.3
55899.9
43511.4
9716.85
2294.43
12812.7
36919.9
46279.4
52353.2
56331.1
58651.1
59754.3
76529.4
75022
71774.6
66110.5
55989
44197.9
8251.21
2263.22
14059.3
37460.5
46619.8
52564.7
56488.9
58757.2
59842
77994.2
76904
74610
71075.6
63806.4
55198.5
33856.2
2354.93
42457.9
53664.1
57188.2
60551.3
62680.3
63945
64584.6
77871.7
76752.4
74378.1
70616.3
63096.7
53736.7
27524.5
2337.21
40474.8
52721.2
56659.4
60190.6
62419.3
63760.6
64426.7
77674
76505.6
74005.1
69851.2
63908
50149.2
23038.5
9776.72
21901.5
42713.1
56088.5
59540.9
61968.6
63444.8
64157.8
77442.1
76213.6
73522
69090.2
61793.2
47955.3
20902.6
2303.97
11157.3
40153.4
49689.7
58730.2
61359.6
63037
63826.5
77243.4
75962.1
73181.2
68390
60071.6
46378
22279.2
2296.78
8581.88
31030.9
45374.6
54464.4
60914.9
62710.1
63534.9
77120.7
75835.7
72844.9
67647.6
59372.3
44949.6
19982.2
2290.79
2730.26
26312.1
42260.7
54199.2
58346.6
62631.7
63401.4
77050.5
75733.5
72650.7
67346.4
59093.2
43957.3
19094.7
2171.07
3197.73
18784.1
42305.7
53287.5
58761.9
62698.6
63366.3
77100.4
75803
72732.3
67750.4
59203.2
44115.5
16406.3
2235.91
2302.55
19895.9
44325.8
53509.9
59379.7
62777.8
63386.3
77253.6
76010.2
72999.2
68174.4
60190
46710.8
23042.9
2209.57
1992.3
21015.7
43714.4
53295.1
59252.1
62737.3
63376.2
77478.6
76311.1
73394
68868.5
61678.5
51019.9
40328.1
2283.93
2166.08
19996.9
41815.8
53025.8
58658.2
62704.1
63415.2
77717.2
76578
74166.2
69650.7
62896.3
53286
46565.5
4616.31
9281.32
26678.5
42675.5
54594.8
61151.7
62768.6
63538.9
77944.8
76845.2
74479
70636.2
63565.4
51922.8
32028.3
2277.8
11362.1
35896.4
49777.5
59177
61548
63079.2
63803.1
78163.2
77099.5
74839.9
71096.1
65796.1
52092.2
23952.3
2421.39
20825.9
42955.7
56803.7
59882.3
62085.3
63431.6
64089.7
78326.7
77292.1
75101.6
71632.3
64502.9
55758
31583.3
2326.95
42484.3
54117.6
57080.4
60387.6
62464.2
63695
64313.2
78410
77395.3
75260.8
71974.4
65010.2
56835.3
36409.8
2348.81
43200.8
54593
57581
60712.2
62682.9
63839
64430.5
81759.1
81469.9
80943.6
81369.8
82513
89573.1
133734
145063
98271
77574.1
71947.5
70656.8
70128.4
70067.1
70128.3
81623.5
81288.3
80676.4
80781.2
81464
88727
133236
134714
95115.4
76336.7
71080
70142.8
69801.9
69844.2
69942.6
81397.5
80982
80231.3
79346
80013.5
75681
96857
91035.7
81399.7
67945.3
69325.9
69096.1
69224.4
69455.4
69620.4
81123.1
80604
79531.8
78124.2
73976.8
70324.7
76195.2
57259.9
60443.7
63150.5
63786
67804.1
68392.9
68940.9
69210.2
80875
80257.4
79013.1
75465.4
71490.1
63085.9
45060.1
2462.3
29762.8
50015.1
58423.6
63554.2
67714.3
68480.2
68827.6
80700.5
80051.8
77477.2
74471.5
68720.7
58365.7
34679.7
2553.34
2321.95
41387.1
54847.3
63193.5
65171.7
68260
68637.3
80580
79894.1
77106.9
73990.3
67363.3
56030.6
30891.6
2190.13
2281.65
40614.3
60649.5
64714.2
65881
68285.1
68569.1
80575.5
79880.5
77066.8
73346.4
67042.3
55361.3
28547.6
2268.46
2372.6
35944.1
81904.4
70878.9
67017.3
68402.5
68596.2
80682.2
80015.3
77235.2
73609.7
67632.9
57145.9
35845.2
2290.66
2936.27
43086.4
74363.2
70080
66841.5
68388.7
68606.3
80889.7
80284.9
77599.5
74895.7
68832
59407.8
38451.8
2166.36
2296.48
40422.3
58822.1
64511.8
65983.8
68399.7
68684
81149.6
80601.7
79521.1
75768.3
70875.8
62046.6
34951.4
4611.14
21232.6
46942.5
56762.1
64181.1
68061.6
68589.4
68853.1
81432.6
80996
80135.2
79103.6
74502.3
71216.7
56717.1
19675.8
51417.3
58716.8
64000.1
68385.1
68649.8
69000.6
69186.8
81713.3
81380
80826.9
80305.7
81564.6
75701.5
89499.4
97246.4
84700.7
68563.8
70172.8
69536.4
69366.7
69437.3
69537
81921.1
81660.8
81222.2
81647.4
82796.5
90305.3
136508
133835
98730.9
77968.2
71697.9
70472.1
69865.4
69763.1
69805.6
82026.6
81807.9
81442.1
82152.2
83634.5
91076.4
136466
147561
100744
78964.8
72467.2
70909.2
70141.4
69941.6
69948
86203.4
86631.7
87507.3
90308.6
96287.2
100475
124003
128495
105548
92132.8
84417.8
79900.4
77416.8
76305.1
75866.3
86088
86470.6
87316.5
90012.5
95614.8
100626
124681
131126
105608
91504.2
83728.7
79437.4
77086.5
76070
75671
85884.1
86159.3
86945.5
88642.3
93155
96970.4
112216
135539
105599
89942.3
81469.8
78202.2
76431.6
75627.9
75317.3
85621.5
85790.9
86239.1
87462.4
87887.1
93920.2
108043
136191
104680
85834.7
78126.4
76472.7
75412.8
75010.3
74835.4
85375.4
85443.7
85646
84414.3
85391.2
86475.3
93874.1
142324
96516.5
77707.3
72995.6
72711.4
74343.2
74339.4
74321.3
85193.2
85152.4
83683
83431.4
82099.1
81119.2
81903.7
79643.8
81394.8
65678.3
66106
70237.3
71456.8
73779.9
73935.5
85042.1
84949.5
83316.1
82829.8
80067.3
78590.1
76022.1
71310.8
39120.2
29286.1
55489.5
68281.2
71006.6
73529
73713
84980.2
84859.9
83164.1
81444.1
79324.6
76704.4
69324.4
2637.53
2284.99
2272.19
37226
77541.3
71783.1
73571.2
73691.1
85011.9
84885
83170.3
81416.2
79212.2
76520.8
71070.9
40159.6
2311.26
2462.3
95422.1
79401
72083
73671
73748
85150.8
85068.8
83380.8
82881.6
79823.1
77936.3
73406.8
62765.7
62375.6
58506.6
69173.3
71698
72101.4
73900.8
73946.4
85370
85416.4
85573.9
83782.5
82389.5
81507
84969.3
126970
84981.5
71850.1
70528.7
72752.9
74588.7
74360.7
74269.9
85652.3
85837.6
86342.4
87703.1
87471.1
93471.9
105733
152338
99923.3
82240.8
77279.1
76764.1
75503
74945.2
74710.7
85940.8
86256.8
87154.1
89123.1
94319.1
98115
117036
144028
108768
90253
81953.4
78404.1
76396.6
75482.6
75126
86143.5
86572.6
87521.6
90486.6
96593.3
101883
128682
138861
108575
92310.7
84100.6
79604.8
76993.7
75868.9
75427.1
86238.4
86713.9
87687.7
90746.4
97042.1
101575
125897
131710
107821
93055.5
84723.3
80005.3
77280
76060.6
75579.7
90091.5
90742.4
91872.6
93624.9
98394.6
97008
98115.4
100112
95410.4
93588.4
89300.1
85543.4
83050.8
81668.8
81022.1
90044.8
90684.7
91861.6
93916.7
98611.1
98235.3
100109
103585
97168
94060.6
89329.5
85395.6
82843.4
81487.3
80857.5
89949.3
90523.6
91826.2
93896
97727.8
99852.5
104137
111970
100950
94074.7
88354.9
84686.9
82351.9
81101.5
80539.9
89799.3
90340.1
91543.1
93942
95573.1
101436
110398
119676
108437
94505.3
87277
83512.3
81494.6
80522.7
80071.8
89631.6
90115
91255.2
91875.1
95316.9
100495
111925
131664
114122
94414.5
84457
80714.8
80299.2
79749.1
79499.2
89468.1
89794.8
89796.8
91328.9
93435
99118.3
113420
140463
119950
87934.9
77906.5
77113.8
77451.1
78952.4
78946.3
89325.3
89595.6
89556.5
90911
92149.8
98511
114864
150002
85105.9
53331.5
56482.1
69225.8
75353.2
78355.6
78539.4
89227.6
89464.5
89305.4
89655.9
91327.6
96620.5
109716
126819
96517.4
5662.35
2099.59
56987.6
74198.1
78165.7
78405
89180
89403.8
89152.1
89385.4
90658.8
94714.9
104048
128814
71333
2239.3
15875.4
62802.5
75181.6
78400.1
78519.4
89216.9
89469.4
89155.9
90089.2
90576.5
94266.7
102256
119596
95440.2
73386.8
69226.5
74161.3
76984.5
78886.5
78825.2
89348.4
89732
90633.9
90686.2
91888.2
95656.1
105662
125238
104645
87587.4
80287.6
79365.9
80095.9
79517
79262.7
89536
90027.8
91125.8
93281.1
94420.3
100092
109174
122044
106685
92465.2
85498.6
83108.1
81173.1
80190.3
79742.3
89713.5
90275.3
91556.5
93606.2
97537.6
100080
106334
114632
101557
93567.5
87828.6
84311.3
81951.5
80712.6
80154
89814.5
90460.1
91623.3
93748.3
98643.8
98105.8
100300
104121
96852.5
93609.5
89004.2
85078
82423.5
81064.1
80426.4
89845.6
90508.7
91628.9
93494.2
98355.8
96951
97930.8
100583
95605.1
93294.8
89004.9
85233.1
82609.8
81210.9
80552.7
92865.6
93347.1
94210.8
94509.7
97076.1
96270.6
95280
97671.7
93804.6
93405
90754
88587.3
86900.7
85782.4
85196
92902.5
93418.7
94327.2
95059.7
97763.5
97391.6
96589.2
98895.6
95390.4
94233.2
91255.4
88743.7
86875
85707.1
85102.6
92962.5
93485.1
94594.8