/*--------------------------------*- C++ -*----------------------------------*\
| =========                 |                                                 |
| \\      /  F ield         | OpenFOAM: The Open Source CFD Toolbox           |
|  \\    /   O peration     | Version:  v2012                                 |
|   \\  /    A nd           | Website:  www.openfoam.com                      |
|    \\/     M anipulation  |                                                 |
\*---------------------------------------------------------------------------*/
FoamFile
{
    version     2.0;
    format      ascii;
    class       volScalarField;
    location    "0.05";
    object      p_rgh;
}
// * * * * * * * * * * * * * * * * * * * * * * * * * * * * * * * * * * * * * //

dimensions      [1 -1 -2 0 0 0 0];


internalField   nonuniform List<scalar> 
449343
(
104878
104997
105192
105365
105411
105092
104236
102771
100752
98393.2
95991.4
93822.9
92080.9
90875.8
90262.3
104879
104999
105193
105366
105411
105090
104233
102767
100749
98392.6
95992.1
93823.5
92080.7
90874.7
90260.7
104883
105002
105196
105368
105410
105085
104225
102758
100743
98391.1
95993.5
93825
92080.5
90872.7
90257.6
104888
105007
105201
105371
105409
105076
104213
102744
100733
98386.9
95995.2
93827.7
92080.7
90870.2
90253.8
104894
105014
105208
105375
105407
105065
104196
102726
100719
98381.4
95997.8
93831.6
92081.6
90867.8
90249.9
104902
105022
105215
105382
105403
105057
104184
102713
100711
98380.5
96002.8
93836.7
92082.8
90865.7
90245.3
104910
105029
105223
105389
105403
105052
104176
102704
100706
98382.7
96005.9
93841.3
92083.7
90862.3
90240.1
104917
105036
105229
105395
105405
105052
104170
102696
100697
98379.3
96004.6
93839.5
92080
90857.4
90234.5
104923
105042
105234
105399
105410
105056
104178
102705
100704
98376.7
95997.9
93831.6
92072.8
90851
90228.5
104928
105047
105238
105403
105417
105065
104187
102712
100705
98370
95988
93818.8
92062.7
90843.6
90222.5
104932
105050
105241
105406
105425
105078
104202
102724
100710
98366
95976.6
93805.8
92052.7
90836.8
90217.5
104936
105053
105244
105409
105433
105092
104220
102741
100721
98366.5
95968
93795.1
92044.3
90831.4
90213.8
104939
105056
105246
105411
105441
105105
104234
102756
100729
98367.2
95961.7
93787.1
92038.3
90827.8
90211.5
104941
105058
105247
105412
105446
105112
104243
102764
100734
98366.7
95957.3
93782.1
92034.5
90825.7
90210.3
104942
105059
105248
105413
105448
105116
104247
102768
100735
98366
95955.1
93779.6
92032.8
90824.7
90209.9
104744
104911
105206
105532
105753
105656
104932
103399
101122
98421.7
95719.4
93351.8
91500.2
90242.1
89608.1
104746
104913
105208
105534
105754
105654
104928
103394
101120
98422.3
95721.3
93352.7
91499.5
90240.2
89605.6
104749
104916
105212
105538
105755
105649
104918
103385
101115
98423.7
95726.2
93355.5
91498.6
90236.7
89600.9
104754
104922
105218
105543
105755
105638
104898
103360
101101
98422
95733.5
93360.7
91498.2
90232.4
89594.8
104761
104930
105226
105549
105757
105618
104873
103333
101063
98418.6
95745
93369.1
91498.9
90227.9
89588
104769
104939
105236
105559
105761
105610
104854
103316
101059
98421.7
95759.3
93380.1
91500.9
90223.5
89581
104778
104948
105246
105567
105761
105611
104846
103305
101056
98433.3
95783.4
93392.8
91502.1
90219.4
89574.4
104786
104956
105253
105573
105764
105608
104836
103249
101040
98426.4
95783.2
93392.3
91498.2
90213.9
89567.9
104792
104962
105259
105577
105768
105615
104849
103305
101053
98426.4
95774.1
93382.4
91490.6
90207.1
89561.8
104798
104966
105261
105580
105777
105620
104859
103315
101053
98410.6
95743.3
93360.6
91478.8
90199.9
89556.7
104803
104969
105262
105579
105780
105633
104879
103330
101055
98401.8
95721.6
93340.9
91467.4
90194.2
89553.4
104807
104972
105264
105581
105785
105656
104906
103357
101086
98399.2
95703.5
93325
91458.6
90190.5
89551.8
104810
104975
105265
105583
105791
105672
104928
103382
101099
98397.2
95691.1
93314.1
91452.9
90188.5
89551.6
104813
104977
105267
105584
105794
105679
104939
103390
101103
98393.2
95682.9
93307.5
91449.7
90187.7
89551.9
104814
104978
105267
105585
105795
105683
104944
103395
101104
98391.3
95679.3
93304.7
91448.4
90187.6
89552.3
104399
104674
105196
105884
106569
107034
106708
105002
102039
98440.9
95002.2
92183.3
90094
88723.7
88047.1
104400
104676
105199
105887
106572
107032
106700
104996
102037
98444.5
95006.3
92184.2
90091.6
88719.6
88042.4
104403
104680
105205
105895
106579
107030
106685
104985
102032
98455.8
95020
92188.5
90088.1
88712.2
88033.5
104408
104686
105214
105907
106589
107017
106639
104952
101985
98461.3
95045.3
92199.2
90084.8
88702.5
88021.6
104415
104696
105229
105924
106599
106980
106543
104843
101898
98486.2
95078.4
92215
90083.3
88692
88008
104425
104708
105246
105943
106619
106950
106507
104827
101895
98510.5
95128.1
92238.1
90083.3
88682.2
87994.6
104434
104720
105260
105962
106614
106959
106488
104803
101885
98525.5
95244.5
92268.1
90087.4
88674.5
87983.2
104444
104730
105270
105973
106625
106971
106507
104836
101869
98519.1
95241.7
92267.1
90082
88667.1
87974.4
104452
104737
105274
105975
106623
106964
106490
104803
101882
98517.9
95233.3
92255
90072.9
88659.3
87968
104460
104742
105277
105969
106640
106963
106510
104823
101887
98496.8
95108.7
92214.2
90056.1
88653.6
87965.7
104466
104744
105272
105960
106625
106996
106551
104840
101886
98464.7
95048.9
92180.1
90044.7
88651.7
87967.2
104472
104747
105270
105954
106626
107038
106647
104946
101967
98432.2
95007.3
92155.1
90036.8
88652.7
87971.1
104477
104751
105270
105951
106624
107058
106696
104980
102010
98421.6
94975.8
92137.7
90033.3
88655.4
87976
104482
104754
105270
105949
106622
107064
106714
104990
102014
98406.9
94958.1
92129
90032.4
88658.3
87980.2
104484
104756
105271
105949
106622
107067
106722
104996
102014
98401.7
94952
92126.1
90032.6
88660.1
87982.7
103711
104144
105008
106278
107821
109355
110176
108139
103670
98193.3
93508.9
90066.9
87699
86217.5
85507.2
103711
104145
105011
106283
107827
109357
110158
108131
103664
98199.2
93514
90064.8
87692.5
86209.5
85498.8
103713
104148
105019
106298
107847
109366
110144
108137
103696
98244.9
93540.1
90065.6
87681.2
86194.4
85482.7
103715
104154
105033
106325
107874
109391
109951
108118
103560
98332.6
93604.6
90074.8
87667.1
86173.7
85460.4
103721
104165
105055
106357
107918
109330
109162
107813
104360
98488.5
93694.9
90100.8
87652.9
86149.4
85434.2
103730
104181
105090
106429
108001
108533
109037
107773
104400
99749.8
93821.1
90135.6
87641.9
86123.9
85407.7
103741
104197
105116
106459
107353
108569
108999
107717
104355
99768.1
95143.3
90164.2
87632.8
86105.7
85386.2
103752
104211
105134
106475
107359
108590
109021
107622
104345
99770.9
95120
90157.8
87630.3
86096.7
85371.8
103764
104218
105133
106472
107360
108582
109001
107699
104349
99763.8
95120.1
90146.3
87611.9
86085.1
85366.2
103776
104225
105132
106465
108026
108555
109017
107733
104360
99754.4
93796.7
90102.9
87605.6
86087
85370.7
103787
104227
105111
106402
107953
109353
109144
107793
104386
98459.2
93654.1
90052.6
87601.5
86097.7
85382.7
103798
104234
105106
106388
107921
109414
109959
108103
103533
98291.4
93552.2
90015.2
87604.4
86110.6
85397.5
103809
104241
105104
106371
107904
109407
110156
108128
103662
98195.7
93479.3
89998.2
87611
86123.6
85411.9
103817
104247
105105
106364
107893
109403
110176
108120
103629
98145.6
93448.2
89992.5
87617.5
86133.7
85423
103821
104250
105106
106364
107890
109404
110194
108127
103633
98137
93440.4
89992.1
87621.6
86139.4
85429.1
102480
103086
104346
106354
109172
112712
116463
113644
106135
96921.8
90537.7
86602.1
84121.6
82658.1
81985.4
102477
103084
104346
106359
109180
112721
116442
113639
106137
96933.9
90538.1
86590.2
84106.7
82643.7
81971.5
102473
103082
104350
106377
109223
112765
116441
113644
106205
96998.1
90560.7
86570.8
84078.2
82615.9
81944.5
102469
103082
104364
106438
109372
112896
114102
113710
107801
97426.4
90705.2
86564.7
84036.9
82575.3
81906.1
102467
103085
104390
106496
109441
111395
114051
113612
107869
99729.9
90843.8
86550.8
83988.1
82524.2
81859.4
102471
103103
104450
106692
108572
111559
114032
113443
107765
99952.8
93074
86601.9
83917.5
82472.2
81810.8
102477
103110
104465
106123
108645
111639
113092
112753
108112
100952
93239.8
88451.6
83821.8
82412.9
81768
102493
103133
104542
106140
108696
111677
113104
112723
108125
100982
93295.1
88489
83904.9
82391.5
81750.4
102508
103138
104485
106136
108689
111674
113085
112736
108106
100980
93275.1
88470.4
83789.5
82382.7
81740.1
102533
103164
104508
106738
108596
111579
113171
112766
108112
99985.6
93121.9
86552.9
83868.2
82423.2
81762.4
102555
103169
104465
106559
109487
111459
114006
113452
107724
99809.5
90784
86478.4
83916.2
82455.6
81793
102580
103191
104465
106526
109440
112932
114087
113671
107870
97364.7
90628.7
86480.4
83952.8
82494
81826.7
102601
103206
104466
106477
109303
112822
116456
113655
106157
96924.3
90473.8
86478.8
83986.5
82526.5
81856.7
102617
103220
104473
106471
109274
112789
116462
113627
106086
96854
90445.4
86493.3
84010.4
82549.4
81878.8
102626
103227
104478
106472
109269
112782
116484
113632
106079
96834.5
90439.8
86502.1
84022.9
82561.6
81890.4
100456
101186
102767
105483
109818
116653
122176
127434
113608
92315.9
84897.5
81250.5
79118.5
77984
77500
100448
101178
102760
105481
109829
116663
122168
127416
113584
92292.6
84872.6
81216.9
79090.4
77961.1
77479.6
100433
101164
102749
105473
109846
116712
122146
127380
113529
92234.3
84799
81131
79031.8
77915.7
77439.5
100414
101150
102748
105528
110221
114511
122204
127425
113486
96729.5
84845.9
80974.5
78935.9
77848
77381.1
100392
101124
102725
105591
108991
114769
122456
124965
114832
97389.1
88092.3
80797.5
78764
77746.5
77307
100382
101107
102783
105169
109081
113798
120646
123823
114767
99671.9
88181.6
83163.4
78570.9
77626.4
77226.3
100373
101085
102782
105212
109207
113826
119697
123752
115219
100593
89881.9
83154.8
78403.3
77513.3
77154.6
100385
101086
102789
105286
108571
113308
119692
123695
115166
100627
89852.8
83128.3
80335
77450.2
77122.6
100416
101128
102821
105270
108575
113790
119691
123704
115197
100650
89851.1
83081.1
78359.3
77477
77119.5
100468
101191
102861
105206
109214
113852
119675
123767
115269
100634
89893.6
83124
78496.1
77558.8
77163.1
100512
101240
102832
105687
109049
114839
120546
124788
114764
99513.3
88115.6
80681.7
78661.1
77655.4
77221.3
100565
101298
102890
105650
110318
114596
122234
127378
113422
96820.7
84726.6
80852.9
78823.6
77743.9
77281.7
100605
101333
102907
105615
109962
116787
122177
127343
113456
92122.7
84673.8
81005.8
78913.3
77804.4
77332.4
100635
101362
102935
105640
109963
116754
122190
127387
113498
92166.6
84740.6
81088.1
78968.6
77846.1
77368.4
100651
101377
102948
105647
109956
116748
122226
127420
113521
92165.9
84754.2
81116.8
78994.3
77867
77387
97417.1
98125.6
99711
102607
107564
114373
130827
160673
117723
84737.2
74597.4
73284.5
72531.5
72277.3
72203.6
97400.7
98107.3
99689.3
102582
107541
114357
130789
160632
117585
84629.5
74518.6
73218.8
72490.3
72247.4
72178.3
97368.1
98067.5
99637.6
102497
107413
114299
130660
160527
117456
84515.5
74326.8
73076.4
72404.8
72185.2
72128.1
97323.7
98014.7
99568.1
102273
106749
114603
130615
160312
117183
84520.8
77622.9
72675.3
72253.1
72088.6
72054.3
97263.3
97926.7
99384
102307
106750
113673
127575
160052
118080
88391.4
77250.5
74758.4
71937.8
71946
71957.8
97209.5
97799.9
99823.7
102359
106468
113603
126079
154903
122839
90309.9
79401.8
74538.8
73518.1
71772.1
71855.6
97190
97769.7
99825
102356
106479
113139
125896
154634
122686
90212.8
80559.6
75971.4
73371.1
71693.4
71781.4
97191.4
97770.5
99897.7
102388
106477
113090
125791
154468
122696
90176.9
80470
75882.5
73327.1
71661.6
71720.9
97250.3
97829.4
99885.6
102434
106514
113097
125774
154431
122946
90249.1
80462.2
75859.4
73269.6
71643.3
71735.4
97329.2
97917.8
99926.7
102409
106549
113158
125865
154538
123060
90316.8
80507.5
75901.7
73347.1
71676
71771.1
97428.4
98090.9
99544.3
102427
106832
113695
126071
154794
122870
90291.3
79410.5
74492.7
71794.2
71826
71848.3
97529.1
98217.9
99765.6
102450
106762
114588
127619
160021
117224
88559.7
77330.7
72503.9
72104.2
71957.5
71932.8
97601.4
98298.3
99860.4
102709
107598
114402
130683
160346
117288
84388.9
74155.3
72911.5
72255.9
72051
72001.8
97652.3
98356.3
99931
102807
107743
114512
130828
160558
117411
84435.3
74338.7
73054.1
72342.5
72112.5
72050.4
97677.1
98382.5
99959.7
102839
107772
114535
130913
160655
117488
84458.2
74391.7
73111.7
72381.2
72141.6
72075
93298.4
93729.3
94689.7
96457.9
99374.5
106032
113432
111095
26578
54780.3
59889.1
62924.6
64816.3
66001.9
66540.8
93274.5
93701.5
94654.8
96407.4
99327.5
105982
113386
110985
24632.3
54418.7
59734.6
62848
64777.9
65972.9
66516.3
93225.3
93637.8
94576.2
96329.5
99193
105848
113248
110830
24404.3
54262.3
59602.1
62791.4
64719.8
65919.2
66471.3
93156
93537.3
94444.6
96017.1
100402
105384
112928
110584
24755.2
54367.6
60913.8
62770.1
64649.5
65845.7
66411
93065.1
93406.1
94215
97093.7
100122
105713
113598
110224
25339.9
57718.8
62408.7
63985.6
64632.8
65780.4
66340.4
92962.8
93286.9
95301.1
96973
100547
105889
113294
109713
26608.8
58108.8
63300.5
64029
65603.1
65758.6
66269
92951.9
93264.2
95289.4
96900.6
100773
105778
113081
109379
26156.3
58117.3
63293.8
64837.3
65488
65730.8
66222.8
92968.7
93270
95285.5
97532.5
100770
105722
112949
109044
26421.7
57952.4
63131
65173.5
65462.8
65705
66167.6
93034.8
93347
95330.2
97559.5
100798
105735
112922
108922
27513.1
57867.4
62997
65084
65379.4
65653.5
66160.5
93129.3
93451.2
95423.7
97034.3
100855
105825
113038
109090
30452.4
58028.7
62988.9
64619
65349.8
65626.4
66159.4
93290.5
93638.7
94456.3
97204.9
100719
105988
113301
109560
26573.3
57885.6
62937
63684.4
64427.8
65623.7
66205
93434.3
93817.1
94721.3
96292.7
100501
105212
112647
110226
25275.5
55986.6
60524.4
62529.3
64453.3
65686.5
66268.8
93537.1
93951
94887.8
96622.5
99469.8
105810
113153
110641
24571.9
54096.3
59379.2
62585.8
64544.2
65766.9
66330.8
93607.2
94034.6
94986.1
96730.9
99631
106164
113453
110950
24308.9
54117.7
59508.1
62653.6
64611.2
65825.8
66379.1
93640.2
94070.9
95028.1
96785.2
99682.7
106267
113587
111129
24528.8
54169.2
59604.7
62714.9
64647.4
65855.5
66404.8
88364.7
88277
88075.2
87762.1
87723.8
91688
95395.1
108603
16314.9
33906.5
46388.3
53182.4
57605.9
60180.7
61332.6
88338.1
88245.9
88038.9
87718.4
87691.8
91634.5
95344.3
108402
2842.76
33438.8
46234.9
53132.7
57581.6
60159.2
61313.6
88287.1
88183.8
87965.8
87670.8
87619.8
91502.3
95208.7
108265
3505.25
33378.3
46257.7
53163.1
57568.7
60134.8
61286.1
88220.1
88086.2
87857.1
87702.9
90312.2
91414.5
94940.6
108067
6171.94
33691
46481.5
53387.5
57604.1
60125.1
61262.8
88146.2
87989.1
87821.4
89639.6
90305.1
93176.8
95929.8
107946
4783.57
33730.8
47210.5
54123.4
57700.2
60157.7
61252.4
88082.5
87999
89336.7
89554.8
91488.1
93910.2
95748.3
107453
3053.53
34389.7
47678.7
54128.6
58257.5
60166.9
61237.4
88098.1
88023.8
89263.2
89549.1
92103.6
93808.2
95611.1
107185
3293.51
34702.3
47545.4
54334.5
58157.7
60123.8
61200.6
88134
88055.8
89266.1
90521.6
92090.1
93772.7
95530.2
106873
4620.91
33832.5
46964.3
54246.1
58021.3
60071.8
61142.2
88212
88141.8
89330.5
90567.2
92136.7
93804.4
95525
106666
2289.08
32475.9
46456.1
54040.3
57935
60011.3
61118.2
88302.3
88221.4
89451.5
89768
92233.1
93914.7
95634.1
106869
2276.63
32613.1
46498.6
53863.6
57940.9
59984.7
61099.7
88455.8
88314.6
88160.8
89845.9
91766.2
94110.8
95855.8
107341
5019.8
33292.7
46759.8
53567.2
57408.9
59961.8
61092.3
88591.9
88470.9
88266.8
88109.7
90687.5
91842.7
95263.9
108040
2739.29
33409
46288.6
53069.7
57369.4
59945.7
61107.4
88695.5
88602.3
88401.4
88120.4
88052.3
91791.6
95307.7
108246
4858.84
33243.4
46005.6
52940.3
57383.1
59978.3
61144
88767.9
88682.6
88484.7
88165.2
88131.1
91940.1
95546.4
108500
2606.6
33184
46012.1
52938.6
57417.1
60016.6
61181.8
88803.2
88720.7
88525.2
88210.6
88163.1
92043.1
95675.8
108652
2470.18
33165.1
46099.1
52971.8
57441.8
60041.7
61205
83309.6
82646.6
81260.7
79021.6
78628.8
77401.9
79829.5
2159.78
25741.1
39330.2
47321
52815.8
56085.6
57601.6
83283
82615.5
81225
78984.2
78584.1
77345.4
79772.9
2196.87
25563.2
39261
47307.8
52796.6
56065.5
57581.9
83238.9
82567.5
81160.4
78909.9
78546.4
77268.8
79637.2
2206.4
25419.3
39369.3
47334.7
52783.2
56047.4
57555.3
83195.9
82515.8
81077.2
79013.2
78773.5
77145.8
79409.4
2225.4
25715.6
38399.2
47572.6
52828.6
56054.4
57539.1
83175.3
82487
81194.5
81060.4
79290.5
79205
80065
2240.93
24243.1
38327.3
47293.2
52924
56106.8
57542.5
83183.2
82633.7
82632.1
81305.7
80616.1
80165.6
80031
2296.77
26257.6
38488.2
47282.4
52706
56050
57539.6
83229.6
82688.7
82646.2
81430.8
81422.7
80226.4
80053.5
2054.83
29798
38163.6
46797.7
52576.2
55959.6
57483.9
83289.4
82759.1
82702.3
82336.4
81577.2
80277
80069.4
2375.49
23993.9
36565.1
46143.8
52364.8
55884.5
57413.1
83386.5
82859.5
82793.6
82437.5
81663.9
80336.4
80075.6
2198.51
19663.9
35591.7
45807.3
52265.1
55828
57384.3
83474.1
82938.7
82909.3
81745.6
81680.7
80426.4
80149.4
2319.88
21256.3
35954
46033.4
52283
55838
57378.5
83583.6
82933.2
81689.1
81544.1
81016.5
80511.2
80291.7
2463.89
22866.9
36666.3
46483.9
52571
55882
57369
83675.7
83024.5
81653.8
79627.9
79410.2
77845.7
79574.4
2344.61
24002.9
37994.7
47235.8
52583
55874.6
57388.1
83756.8
83108.9
81742.9
79538.8
79142.5
77775.1
79977.3
2384.49
25175.8
39145.8
47132.7
52616.3
55909.7
57431.4
83819.8
83169.6
81807.3
79585.1
79192
77857.8
80155.7
2382.58
25363.2
39105.8
47160
52667.3
55952.3
57476.4
83853.2
83204.3
81841.1
79615.3
79183.4
77906.5
80256.2
2397.47
25454.6
39176.4
47182.6
52697.4
55981.4
57504.2
79040.9
77854.2
75355.7
70945.2
68535.2
60710
56206.3
5054.04
2171.95
24959.3
37587.5
45675.6
51200.4
54507.8
56086.7
79007.2
77813.1
75299
70867.1
68460
60605.2
56089.9
2386.36
2195.05
25028
37499.4
45662.1
51158.8
54471.4
56050.6
78952.9
77751.2
75200
70697.1
68329.5
60401.5
55897
2849.16
2207.04
21549.3
37549.4
45609.1
51088.5
54413.7
55988.8
78903.1
77700.2
75052.2
70560
68162.2
60135.8
55678.9
2396.1
2234.17
21950.2
34963.7
45626.5
51028.6
54359.7
55925.2
78893.5
77666.3
74960.9
73444.2
67844.5
63029.9
57574.1
2417.87
2255.19
20525.3
34042.1
43978.8
50980
54348.6
55875.6
78922.1
77701.5
76898.8
73330
69828.2
64438.2
57855.2
3351.25
2379.88
22355.7
33559.7
43740.1
49811.9
54231.5
55828.3
78972.6
77751.9
76929.5
73273.4
70744
64563.5
58180.3
2463.58
2288.17
16047.4
32131.5
42457.5
49594.7
54115.2
55746
79052
77854.5
77010.9
74752.4
70852.1
64695.6
58344.9
2297.58
2289.13
3119
29728.9
41347.3
49372
54036.2
55676
79179.2
77992.5
77157.6
74926
71029
64805.4
58113.3
2233.97
2614.55
12018.6
29365.3
41064.3
49294.7
53996.4
55654.7
79300.7
78136.4
77349.3
73832.6
71279.5
64974.9
58112.9
3160.08
2279.97
14613.9
30364
41766.1
49351.5
54041.2
55683.5
79408.2
78246.7
75700
74205.6
70658.4
65146.6
58206.5
2798.3
2375.67
18225.3
31616.8
43072.3
50668.7
54150.5
55728.3
79495.3
78346.1
75823.5
71493.2
68976.4
61028
56432.4
3113.41
2330.61
20181.6
34469.7
45339.4
50834.5
54222.5
55812.3
79580.1
78422.3
75954
71563.5
69070.1
61131.1
56512
2543.26
2384.78
21586.5
37449.5
45484.5
50988.1
54328.3
55910.7
79648
78486.5
76033.4
71668.7
69198.8
61261.3
56599.2
2498.04
2391.79
24944.4
37483.6
45607.3
51104.2
54416.2
55995.4
79685.1
78525.5
76075.5
71715.3
69246.8
61355.8
56694
2300.96
2409.57
25040.8
37620.9
45659.6
51167
54466.7
56042.4
76375.2
74807.8
71467.3
65518.2
55100.7
44897.1
19241
2295.94
2177.74
28060.3
39963.8
47475.9
52522.4
55519.2
56948.8
76322.4
74742.6
71366
65375.1
54890
44661.6
19183
2281.33
2194.63
27946.6
39755.4
47381.2
52426
55445.6
56882.7
76233
74635.3
71201
65140.4
54501.8
44087.1
18972.6
2290.04
2210.12
22732.6
39525.3
47185.7
52249.4
55311.4
56762.2
76133.6
74533.2
70981
64862.5
58620.6
43493.1
18850.5
2263.57
2232.64
22699.1
35422
46898.2
52015
55139.6
56612.7
76074.9
74463.5
70862.5
67260.5
58444.5
47254.4
25297.8
2280.77
2247.11
19527.2
33353.9
44004.2
51799.1
55012.2
56473.7
76075.1
74434.4
72476.2
67189.6
60612.6
49247.9
26986.8
2286.55
2569.24
18752.2
31632.3
43452.6
49793.6
54870.9
56368.8
76107.8
74464.2
72556.8
67187.2
61656.3
49463.5
27478.1
2344.94
2278.88
10460.3
29432.7
41515.3
49551.4
54774.2
56274.4
76200.2
74588.3
72695.9
68732
61840.4
49753.4
28527.6
4254.55
2257.32
2241.59
27505.9
40270.6
49411.1
54724.1
56226.2
76360.6
74777.9
72911.3
69020.3
62251.3
50189.6
27102
2299.21
2283.96
9322.45
27805.1
40152.4
49381.2
54705.1
56225.1
76534.9
74997.7
73167.2
68161.4
62792.9
50839.7
27377.8
2301.76
2406.08
12736.8
28941.9
41204.1
49460.7
54766.9
56293.2
76688.4
75182.8
71879.7
68531.6
62237.2
51131.1
27503.1
2324.68
2300.97
16313.2
30474.3
43233.2
51651.9
54915.8
56406.6
76822.1
75312.7
71978.8
66198.7
60169.2
45382.8
21765.5
2311.5
2359.29
20023.3
34984.6
46823
51970.1
55104
56580.7
76947.6
75421.4
72132.3
66287.1
55887.5
45240.5
20160.6
2282.33
2406.93
22806.6
39625.3
47233.9
52272.4
55315.6
56758.4
77043
75516.3
72243.5
66384.5
56008.3
45489.1
19875.8
2305.68
2403.2
27958.8
39940.3
47469.3
52480.8
55473.3
56897.3
77095.1
75572.4
72314.5
66465.2
56112.2
45722.2
19807.5
2282.97
2420.58
28274.5
40170.8
47597.8
52595.5
55559.3
56972.7
75923.2
74352.5
70981.1
65152.3
54887.8
43036.3
8136.56
2286.46
14165.7
37063.7
46344.3
52428.1
56440.4
58774.7
59891.5
75844.7
74256
70827.4
64898.3
54636.1
42235.9
7426.32
2253.04
15192.1
36656.9
46038.8
52225.8
56270.8
58654.5
59788.1
75710.2
74091.6
70571.2
64489.4
54535.5
40675.5
8686.19
2288.4
8093.93
28625.6
45546.3
51826.2
55963.5
58435.5
59600.4
75553.5
73917.7
70288.8
64121.9
55994.6
39390.9
9066.82
2281.49
2544.66
27716.2
40196
51284.6
55552.7
58147.3
59365.1
75436
73792.1
70151.9
65228.3
55383.7
41303.3
18585
2274.25
4167.08
22161.3
36870.7
47563.3
55230.1
57922.3
59153.4
75391.6
73741.5
70910.1
64980.4
56578.9
42253
18762.4
2277.76
2579.93
19656.4
34179.4
46965.1
52757.7
57811.8
59030.6
75393.8
73738.3
70933.3
64928.6
57212.4
42177.4
18886.2
2188.12
2428.96
12614.1
32271.7
44897.8
52701.3
57791.1
58968.5
75487.7
73862
71102.2
66111.8
57495.5
42674.1
18595.1
2235.26
2229.53
9244.2
31354.8
43834.3
52797.7
57810
58963.2
75667.5
74091.8
71384.9
66521.8
58334.8
44564.5
24333.8
2228.58
2201.17
12193.5
31510.3
43781.3
52766.8
57801.1
58972.6
75886.9
74375.5
71715.2
66422.8
59450.9
47258.1
27751.2
2493.2
2242.9
10938.9
31843.8
44797.7
52701
57838.6
59045.7
76093.7
74598.1
71366.7
66934.1
59644.8
48234.2
29111.9
2238.01
2339.37
16772.9
33582.1
47165.8
55327.3
57968.7
59189.9
76279.4
74770.3
71451.6
65816.2
58220.7
43085.4
20596.7
2314.17
4315.15
24165.3
39869.7
51535.6
55708.2
58241.1
59429
76456
74934.4
71626.3
65879.4
56416.8
42383.1
13153.1
2312
9435.4
28864.4
46001.5
52112.8
56141.1
58543.3
59677.3
76591.2
75076.2
71798.5
66077
56017.7
43629.1
9829.66
2299.86
12930.4
37037.6
46397.1
52471
56448.8
58768.9
59872.1
76666.8
75159.3
71911.9
66247.8
56126.3
44335.2
8383.65
2263.77
14196.7
37597.8
46757.1
52702.1
56626.2
58894.6
59979.4
77856.8
76766.7
74472.7
70938.3
63669.1
55061.2
33718.9
2243.48
42320.5
53526.8
57050.9
60413.9
62542.9
63807.6
64447.3
77754
76634.7
74260.4
70498.6
62979
53618.9
27406.8
2258.29
40357.1
52603.4
56541.7
60072.9
62301.6
63642.9
64309
77575.9
76407.5
73907
69753.1
63809.9
50046.2
22935.5
9674.02
21798.5
42610.1
55990.4
59442.8
61870.5
63346.7
64059.7
77363.6
76135.1
73443.5
69011.7
61709.8
47871.9
20819.2
2296.8
11071.5
40070
49606.3
58651.7
61281.2
62958.5
63748
77184.6
75903.2
73122.3
68326.2
60007.8
46311.8
22211.7
2252.98
8514.44
30963.4
45308.4
54400.6
60856.1
62651.2
63476
77081.4
75796.5
72800.8
67603.5
59325.7
44901.8
19934.4
2280.01
2683.36
26264.3
42212.9
54155
58302.5
62592.5
63362.1
77030.9
75713.9
72626.2
67321.9
59065
43929.1
19066.5
2170.94
3170.29
18755.9
42277.5
53260.5
58737.4
62679
63346.7
77100.4
75803
72727.4
67743
59194.6
44106.9
16397.7
2235.85
2299.29
19887.3
44317.2
53501.3
59374.8
62777.8
63386.3
77273.2
76029.8
73014
68186.7
60201
46721.9
23053.9
2209.66
1992.69
21026.7
43725.4
53306.1
59266.8
62756.9
63395.8
77517.8
76350.4
73428.3
68902.8
61709.1
51050.6
40358.7
2287.03
2166.48
20027.6
41846.5
53057.7
58692.5
62743.3
63454.4
77776.1
76636.8
74225.1
69704.7
62947.8
53336.3
46615.8
4666.56
9331.6
26728.8
42725.8
54648.7
61210.6
62827.5
63597.8
78023.3
76923.6
74557.5
70714.7
63639
51996.3
32099.5
2338.23
11432
35967.6
49851.1
59255.5
61626.5
63157.6
63881.6
78261.3
77197.6
74938
71194.2
65894.2
52185.4
24045.4
2488.75
20919.1
43048.9
56901.8
59980.4
62183.4
63529.7
64187.8
78444.5
77409.9
75219.4
71750
64620.6
55875.7
31701
2388.27
42602.1
54235.3
57198.2
60505.3
62581.9
63812.7
64430.9
78547.3
77532.6
75398.1
72111.8
65147.6
56972.6
36547.1
2453.72
43338.1
54730.3
57718.3
60849.5
62820.2
63976.3
64567.9
81621.8
81332.5
80806.3
81232.4
82375.6
89435.8
133597
144925
98133.7
77436.8
71810.1
70519.5
69991
69929.7
69991
81505.8
81170.6
80558.7
80663.5
81346.3
88609.3
133118
134596
94997.6
76219
70962.2
70025.1
69684.1
69726.5
69824.8
81299.4
80883.9
80133.2
79247.9
79915.4
75578
96754
90932.7
81296.7
67842.3
69227.8
68998
69126.3
69357.3
69522.3
81044.6
80525.5
79453.3
78045.7
73893.4
70241.3
76111.8
57174
60357.8
63067.1
63702.6
67725.6
68314.4
68862.4
69131.7
80816.2
80198.5
78954.3
75401.6
71426.3
63019.6
44992.7
2395.08
29695.4
49947.6
58357.3
63490.5
67655.4
68421.3
68768.8
80661.3
80012.6
77433.1
74427.4
68674.1
58317.9
34631.9
2547.36
2298.66
41339.3
54799.5
63149.3
65127.5
68220.7
68598
80560.4
79874.5
77082.4
73965.7
67335.1
56002.4
30863.4
2189.77
2261.15
40586.1
60621.3
64687.2
65856.5
68265.5
68549.5
80575.5
79880.5
77061.9
73339
67033.7
55352.8
28539
2268.19
2370.56
35935.5
81895.9
70870.3
67012.4
68402.5
68596.2
80701.9
80034.9
77249.9
73622
67643.9
57156.9
35856.3
2293.79
2943.48
43097.4
74374.2
70091
66856.2
68408.3
68625.9
80929
80324.2
77633.9
74930
68862.6
59438.5
38482.4
2168.09
2299.22
40452.9
58852.8
64543.7
66018.2
68439
68723.2
81208.4
80660.5
79580
75822.2
70927.3
62096.9
35001.7
4661.41
21282.9
46992.8
56812.4
64235.1
68120.5
68648.3
68912
81511
81074.5
80213.7
79182.1
74575.9
71290.2
56788.2
19745.7
51487.2
58788
64073.7
68463.6
68728.3
69079.1
69265.2
81811.4
81478.1
80925
80403.8
81662.7
75794.7
89592.6
97339.6
84793.9
68657
70270.9
69634.5
69464.8
69535.4
69635.1
82038.8
81778.5
81339.9
81765.1
82914.2
90423
136626
133953
98848.6
78085.9
71815.7
70589.8
69983.1
69880.9
69923.3
82163.9
81945.3
81579.4
82289.6
83771.9
91213.7
136603
147698
100881
79102.1
72604.6
71046.6
70278.7
70078.9
70085.3
86066
86494.3
87369.9
90171.3
96149.9
100338
123866
128358
105410
91995.5
84280.5
79763.1
77279.5
76167.8
75728.9
85970.3
86352.8
87198.8
89894.8
95497.1
100509
124563
131009
105491
91386.5
83610.9
79319.7
76968.8
75952.3
75553.3
85786
86061.2
86847.4
88544.2
93056.9
96867.4
112113
135436
105496
89839.3
81371.7
78104.1
76333.5
75529.8
75219.2
85543
85712.4
86160.6
87383.9
87803.7
93836.8
107960
136106
104594
85751.3
78043
76394.2
75334.4
74931.8
74756.9
85316.6
85384.8
85587.1
84350.5
85327.4
86409.1
93806.7
142256
96449.1
77639.9
72929.3
72647.7
74284.3
74280.5
74262.4
85154
85113.2
83638.8
83387.2
82052.5
81071.4
81855.9
79596
81346.9
65630.5
66058.2
70193.2
71412.6
73740.6
73896.3
85022.5
84929.9
83291.6
82805.3
80039.1
78561.9
75993.9
71282.7
39092
29257.9
55461.3
68254.2
70982.1
73509.3
73693.4
84980.2
84859.9
83159.2
81436.7
79316
76695.8
69315.8
2630.87
2282.81
2268.52
37217.5
77532.7
71778.2
73571.2
73691.1
85031.5
84904.6
83185
81428.5
79223.2
76531.8
71081.9
40170.7
2313.15
2470.22
95433.1
79412
72097.7
73690.6
73767.6
85190.1
85108
83415.1
82916
79853.8
77967
73437.4
62796.3
62406.3
58537.2
69204
71729.9
72135.8
73940.1
73985.6
85428.9
85475.3
85632.7
83836.5
82441
81557.3
85019.6
127020
85031.8
71900.4
70579
72806.8
74647.6
74419.5
74328.8
85730.8
85916
86420.9
87781.6
87544.6
93545.5
105804
152408
99993.2
82312
77352.6
76842.6
75581.4
75023.6
74789.2
86038.9
86354.9
87252.2
89221.2
94417.2
98208.2
117129
144121
108861
90346.2
82051.5
78502.2
76494.7
75580.7
75224.1
86261.2
86690.3
87639.3
90604.3
96711
102000
128800
138979
108693
92428.4
84218.3
79722.5
77111.4
75986.7
75544.9
86375.8
86851.3
87825.1
90883.8
97179.4
101712
126034
131848
107958
93192.9
84860.7
80142.7
77417.4
76197.9
75717.1
89954.1
90605
91735.3
93487.6
98257.3
96870.7
97978.1
99974.8
95273.1
93451
89162.8
85406.1
82913.5
81531.4
80884.7
89927.1
90567
91743.9
93799
98493.4
98117.6
99991.3
103467
97050.3
93942.9
89211.8
85277.8
82725.7
81369.6
80739.8
89851.2
90425.5
91728.1
93797.9
97629.7
99749.5
104034
111867
100847
93971.7
88256.8
84588.8
82253.8
81003.4
80441.8
89720.8
90261.6
91464.6
93863.5
95489.7
101353
110315
119590
108351
94421.9
87193.7
83433.9
81416.1
80444.2
79993.3
89572.8
90056.1
91196.3
91811.3
95253.1
100429
111858
131597
114054
94347.1
84390.8
80651
80240.3
79690.3
79440.4
89428.8
89755.6
89752.7
91284.8
93388.4
99070.5
113372
140415
119902
87887.1
77858.7
77069.7
77406.9
78913.1
78907
89305.7
89576
89531.9
90886.4
92121.6
98482.8
114836
149974
85077.7
53303.3
56453.9
69198.8
75328.6
78336
78519.8
89227.6
89464.5
89300.5
89648.6
91319
96611.9
109707
126811
96508.8
5653.77
2099.06
56979
74193.2
78165.7
78405
89199.7
89423.4
89166.8
89397.7
90669.9
94725.9
104059
128825
71344
2250.14
15886.5
62813.6
75196.3
78419.7
78539
89256.1
89508.6
89190.2
90123.6
90607.2
94297.3
102287
119626
95470.8
73417.5
69257.2
74193.2
77018.8
78925.8
78864.5
89407.2
89790.8
90692.8
90740.1
91939.7
95706.3
105712
125288
104696
87637.7
80337.8
79419.9
80154.8
79575.9
79321.6
89614.5
90106.3
91204.3
93359.6
94493.9
100165
109245
122114
106755
92536.3
85572.2
83186.6
81251.6
80268.8
79820.8
89811.6
90373.4
91654.6
93704.3
97635.7
100173
106427
114725
101650
93660.7
87926.7
84409.4
82049.6
80810.7
80252.1
89932.2
90577.8
91741
93866
98761.5
98223.5
100418
104239
96970.2
93727.2
89121.9
85195.7
82541.2
81181.8
80544.1
89983
90646.1
91766.2
93631.5
98493.1
97088.3
98068.1
100720
95742.4
93432.2
89142.3
85370.4
82747.2
81348.3
80690
92728.3
93209.7
94073.5
94372.4
96938.7
96133.3
95142.6
97534.3
93667.2
93267.7
90616.7
88450
86763.3
85645
85058.6
92784.8
93301
94209.5
94941.9
97645.8
97273.9
96471.5
98777.9
95272.7
94115.5
91137.6
88626
86757.3