/*--------------------------------*- C++ -*----------------------------------*\
| =========                 |                                                 |
| \\      /  F ield         | OpenFOAM: The Open Source CFD Toolbox           |
|  \\    /   O peration     | Version:  v2012                                 |
|   \\  /    A nd           | Website:  www.openfoam.com                      |
|    \\/     M anipulation  |                                                 |
\*---------------------------------------------------------------------------*/
FoamFile
{
    version     2.0;
    format      ascii;
    class       volScalarField;
    location    "0.022";
    object      p;
}
// * * * * * * * * * * * * * * * * * * * * * * * * * * * * * * * * * * * * * //

dimensions      [1 -1 -2 0 0 0 0];


internalField   nonuniform List<scalar> 
449343
(
109684
109829
110075
110330
110462
110286
109578
108271
106413
104207
101939
99881.4
98222.8
97072.9
96486.8
109669
109816
110063
110321
110456
110283
109580
108279
106427
104225
101959
99899.2
98237.1
97083.8
96495.7
109659
109807
110058
110321
110461
110295
109601
108310
106469
104276
102013
99949.1
98279.9
97120
96528.1
109650
109800
110057
110326
110473
110313
109632
108355
106529
104347
102088
100020
98340.7
97171.3
96574
109640
109794
110055
110331
110484
110333
109664
108402
106593
104423
102168
100094
98403.6
97223.2
96619.6
109627
109783
110048
110329
110487
110343
109684
108437
106640
104482
102230
100151
98449.7
97258.9
96649.4
109607
109764
110032
110316
110476
110335
109682
108441
106653
104503
102252
100170
98460.9
97262.9
96649.4
109577
109734
110002
110285
110444
110302
109646
108404
106615
104470
102219
100136
98424.2
97224.3
96609.7
109539
109694
109959
110238
110393
110243
109581
108330
106535
104381
102128
100047
98338.8
97142.6
96530.1
109493
109646
109906
110177
110325
110164
109489
108224
106414
104247
101991
99912.5
98213.3
97025.4
96417.6
109444
109593
109846
110110
110248
110076
109385
108101
106272
104089
101829
99753.7
98065
96887.6
96286
109394
109540
109787
110041
110172
109988
109282
107979
106131
103933
101664
99593.1
97914.7
96747.4
96151.7
109349
109491
109733
109979
110103
109910
109190
107872
106007
103795
101520
99451.2
97780.9
96621.9
96030.9
109310
109451
109688
109929
110047
109848
109118
107789
105911
103689
101410
99342.8
97677.9
96524.3
95936.5
109280
109420
109655
109893
110008
109806
109071
107736
105852
103625
101343
99276.8
97614.5
96463.5
95877.4
109520
109711
110053
110458
110771
110809
110232
108863
106753
104212
101651
99399.3
97635
96434.6
95829
109505
109698
110042
110450
110767
110808
110237
108876
106775
104239
101679
99424.2
97654.4
96449.3
95841.1
109495
109689
110038
110452
110777
110822
110262
108916
106832
104309
101752
99489.1
97707.8
96493
95879.7
109486
109684
110039
110462
110795
110845
110298
108970
106912
104409
101858
99583
97784
96555
95934.2
109477
109678
110040
110473
110815
110868
110342
109040
106997
104520
101977
99687.1
97865.7
96619.3
95989.4
109464
109669
110037
110478
110828
110886
110371
109093
107078
104611
102074
99774.1
97930.1
96666.2
96027.5
109445
109651
110024
110469
110820
110888
110380
109112
107114
104655
102125
99812.8
97953.3
96677.4
96032.4
109415
109622
109995
110441
110791
110857
110346
109026
107071
104622
102097
99781.9
97918
96639.5
95992.9
109377
109582
109951
110391
110735
110794
110272
108989
106982
104521
101991
99679.9
97823.9
96551.3
95908.2
109330
109532
109894
110324
110662
110703
110166
108864
106829
104355
101815
99517.9
97680.3
96422
95786.5
109280
109478
109831
110249
110575
110604
110051
108720
106651
104161
101613
99326
97510.9
96270.4
95644
109230
109423
109769
110176
110489
110514
109937
108577
106491
103971
101411
99136.5
97341.6
96117.3
95499.4
109185
109374
109712
110110
110414
110435
109843
108464
106352
103809
101240
98973.9
97193.6
95981.6
95370.3
109146
109333
109667
110057
110353
110371
109769
108375
106245
103688
101114
98852.7
97081.6
95877.4
95270.3
109117
109302
109633
110020
110312
110327
109720
108319
106181
103616
101040
98780.9
97013.9
95813.4
95208.4
109104
109400
109963
110720
111496
112083
111907
110375
107593
104170
100890
98203.2
96212
94905.8
94260.7
109089
109387
109952
110714
111497
112086
111917
110399
107632
104220
100940
98244.1
96243
94929.2
94280.2
109078
109379
109951
110723
111519
112111
111950
110465
107723
104339
101060
98343.7
96320
94990.2
94333
109069
109374
109956
110743
111556
112143
111993
110555
107843
104512
101243
98492.9
96431.6
95076.6
94407
109060
109371
109965
110769
111596
112174
112020
110624
107978
104732
101462
98666.7
96556.8
95169.1
94484
109048
109365
109971
110788
111633
112200
112063
110723
108146
104906
101683
98827.8
96662.6
95242.1
94541.3
109029
109349
109963
110796
111636
112219
112089
110779
108242
104994
101832
98916.9
96715.4
95269.2
94557.1
109000
109322
109936
110772
111614
112214
112098
110646
108203
104965
101810
98891.7
96682.7
95232.3
94517.5
108961
109280
109889
110716
111545
112119
111968
110628
108070
104830
101671
98759.6
96567.1
95128.4
94420.4
108914
109228
109827
110630
111457
112003
111828
110447
107833
104599
101366
98526.3
96379.1
94971.6
94277.8
108864
109170
109755
110541
111343
111896
111698
110256
107565
104307
101037
98254.3
96161.8
94788
94110.5
108814
109114
109685
110453
111239
111802
111605
110119
107364
104014
100740
97997.6
95949.1
94605.4
93942.2
108769
109064
109625
110378
111145
111718
111513
109983
107201
103792
100501
97786
95769.2
94446.8
93794.1
108732
109023
109577
110320
111073
111649
111436
109876
107070
103631
100336
97636
95637.1
94327.5
93681.3
108703
108992
109543
110281
111025
111605
111385
109812
106993
103542
100245
97551.4
95560
94256.2
93613
108310
108757
109651
110975
112603
114221
115192
113351
109082
103802
99308.4
96028.1
93778.9
92373.9
91701.1
108293
108743
109641
110970
112608
114233
115204
113391
109146
103884
99388.7
96091.7
93826.3
92410
91731.4
108280
108733
109640
110986
112643
114283
115245
113503
109307
104105
99587.6
96242.1
93937.4
92496.2
91805.1
108268
108728
109650
111021
112704
114359
115200
113675
109487
104476
99921
96476.3
94101.1
92618.8
91908.2
108257
108726
109668
111071
112796
114408
114509
113535
110392
104980
100353
96771.2
94292.4
92753.8
92017.7
108243
108721
109690
111143
112890
113647
114507
113672
110728
106400
100881
97071.1
94468
92865.3
92103.3
108222
108709
109694
111174
112245
113722
114557
113787
110917
106660
102227
97236.3
94563.5
92915.5
92134.5
108193
108683
109673
111155
112219
113734
114591
113711
110933
106703
102249
97215.9
94539
92879.4
92092
108155
108639
109621
111092
112161
113648
114462
113646
110788
106531
102087
97031.8
94381.2
92749.4
91977.1
108110
108584
109545
110982
112705
113488
114295
113438
110486
106196
100430
96683.1
94124.4
92550.7
91803.3
108061
108525
109457
110840
112533
114095
114204
113201
110124
104422
99803.8
96266.2
93828.8
92320.2
91599.3
108014
108469
109379
110730
112381
113993
114768
113166
108896
103864
99314.2
95897.1
93553
92094.5
91396.5
107973
108421
109316
110642
112270
113871
114781
112972
108717
103477
98950.1
95615.4
93328.5
91903.2
91221
107938
108382
109268
110579
112189
113779
114706
112832
108535
103235
98722.8
95426.2
93169.3
91762.7
91089.8
107910
108352
109234
110540
112142
113726
114657
112759
108441
103122
98609.4
95324.9
93079.7
91681.1
91012.5
106945
107556
108827
110859
113728
117354
121171
118606
111309
102298
96173.5
92452.3
90125.4
88760.4
88135.4
106925
107538
108813
110852
113732
117371
121174
118635
111400
102426
96288.8
92538.9
90190.3
88810.6
88177.8
106905
107523
108808
110869
113789
117461
121242
118750
111686
102768
96577.2
92740.4
90338
88925.3
88275.4
106885
107509
108813
110929
113956
117678
119057
119022
113504
103681
97163.9
93085.8
90560.2
89089.4
88412
106864
107497
108833
111009
114119
116247
119202
119280
114138
106418
97922
93521.3
90831.8
89272.8
88559.2
106842
107490
108874
111205
113274
116499
119409
119547
114699
107333
100479
94017.8
91081.7
89433
88677.3
106812
107463
108855
110622
113336
116646
118565
119048
115255
108652
101115
96022.9
91191.8
89491.6
88721.5
106784
107440
108887
110587
113350
116660
118611
119128
115450
108883
101340
96138.3
91259.5
89446.5
88680
106746
107395
108784
110533
113281
116569
118480
118955
115192
108633
101044
95921.1
90955
89289.7
88536.6
106709
107354
108729
111043
113113
116352
118305
118606
114652
107032
100252
93497.6
90647.5
89057.9
88329.3
106670
107298
108624
110779
113849
116036
118893
118831
113663
106170
97162.8
92868.6
90270.3
88769.1
88083.1
106634
107252
108545
110641
113633
117293
118674
118596
113186
102870
96397.6
92386.5
89923.7
88496.9
87841.7
106602
107213
108488
110530
113419
117038
120772
118313
111017
102028
95831.9
92022.8
89655.5
88271.1
87636.5
106573
107181
108446
110467
113319
116910
120681
118119
110733
101699
95543.2
91801.7
89471.2
88108.7
87485.8
106550
107156
108416
110432
113274
116854
120646
118024
110621
101554
95407.7
91686.8
89370.2
88016.9
87399
104774
105497
107063
109762
114087
120962
126631
131984
118270
97248.6
90251.5
86907.2
84990.3
83991.1
83571.6
104748
105471
107039
109743
114078
120953
126617
131995
118320
97399.5
90389.2
87009.2
85069.7
84054
83625.3
104716
105441
107013
109723
114091
121000
126633
132071
118506
97732.9
90672.2
87220
85246.1
84194.3
83745.2
104678
105408
106993
109758
114417
118894
126809
132354
119032
102792
91419
87568.8
85512.8
84398.6
83914
104634
105362
106955
109807
113261
119189
127186
130293
121084
104643
95406.4
88133.5
85815.8
84618.8
84097.1
104593
105314
106985
109435
113383
118342
125551
129776
122385
108170
96652
91083.2
86137.6
84800.7
84245.7
104545
105253
106953
109458
113501
118376
124775
130216
123828
110295
99070.5
91610.5
86242.8
84850.2
84296.1
104503
105194
106968
109491
112883
117898
124822
130440
124396
110803
99424
91756.7
88247.6
84743
84231.5
104479
105184
106877
109420
112833
118286
124701
130158
123892
110302
99012.7
91386
85907.1
84599.9
84075.9
104464
105182
106846
109280
113329
118190
124444
129557
122674
109075
98032.3
90760.3
85572.3
84350
83840.8
104443
105168
106752
109587
113030
119016
125021
129879
120903
106450
95013.3
87254.8
85124.6
84030.8
83555.6
104430
105156
106732
109481
114114
118603
126464
131874
118457
102422
90435.2
86715.8
84771.3
83729.6
83280.2
104417
105137
106701
109397
113744
120614
126232
131567
117985
96843.3
89794.5
86396.7
84482.3
83475.2
83049.2
104401
105120
106680
109371
113688
120531
126147
131448
117689
96575.2
89554.3
86195.1
84286
83296.6
82882.5
104384
105103
106661
109348
113656
120502
126126
131391
117575
96424.9
89414.3
86077.9
84178.7
83197.2
82788
101592
102275
103811
106640
111513
118311
134771
164784
121518
88938.4
79521.6
78651.6
78207.6
78142.4
78157.8
101557
102238
103770
106593
111462
118269
134697
164719
121496
89014.9
79656.1
78755.7
78297.3
78214.9
78220.3
101506
102180
103698
106482
111303
118180
134510
164568
121547
89322
79831.7
78963
78492.7
78371.5
78357.4
101441
102105
103604
106243
110715
118462
134343
164285
121908
90285.5
83985.3
79176.3
78783
78599.9
78551.7
101354
101990
103387
106326
110670
117526
131340
164049
124545
96022
85069.1
82224.2
79068.2
78851
78763.2
101264
101822
103871
106334
110402
117389
129804
159104
132198
100769
89020.8
83042
81345.2
79033.7
78937.8
101202
101749
103839
106288
110382
116946
129569
159251
136853
104190
91819.3
85468.1
81592.7
79131.4
79007.7
101138
101687
103864
106278
110332
116854
129424
159398
140025
106191
92630.6
85720.9
81698.7
79046.3
78895.2
101137
101685
103782
106260
110317
116812
129354
159044
137862
104762
91912.9
85325.3
81360.2
78845.7
78753.6
101139
101698
103756
106165
110289
116820
129392
158561
132818
101103
90097.8
84383.2
80840
78513.1
78479.5
101167
101800
103195
106121
110431
117256
129572
158533
129250
97878.4
86937.6
81495.9
78240
78180.9
78160.5
101198
101859
103353
105987
110322
118047
131104
163582
121845
94026.4
83074.1
78152.9
77936.3
77859.8
77860.6
101212
101883
103398
106175
110989
117839
134086
163922
121042
88684.7
78826.2
78039.3
77654.6
77595.2
77612.2
101215
101893
103422
106240
111103
117879
134227
164149
120823
88274.1
78745.8
77876.7
77459.4
77411.3
77435.4
101206
101887
103420
106244
111111
117886
134308
164233
120715
88088.6
78629.4
77771.9
77351
77307.9
77336
97352.7
97737.4
98607.4
100249
103023
109634
116959
114424
27465
57765.7
64186.6
67907.8
70241.2
71688.4
72349.3
97311.5
97692
98554.4
100182
102946
109540
116857
114228
27026.2
57813.7
64300.5
68025.7
70345.4
71768.5
72417.5
97245.5
97610.6
98454.6
100064
102768
109327
116599
113836
26201
58167
64594.5
68365.7
70585.4
71944.2
72568.7
97157.9
97491.9
98299.9
99739.3
104035
108766
116071
113090
27435.1
59502
66925.1
69028
70994.7
72212.5
72789.5
97039.3
97332.6
98054.5
100858
103677
109032
116483
111833
33405.9
65580.7
70105.5
71405.9
71545.7
72550.5
73039
96901.6
97184.1
99165.7
100688
104128
109148
115773
109874
47557.5
70847
73560.5
72431.6
73375.1
72886.1
73245
96839.9
97111.1
99101.6
100571
104343
108909
115162
107810
73078.1
77970
76129.8
74659.8
73643
73047
73345.1
96787
97048.7
99035.8
101220
104276
108770
114819
106535
96904.1
82762.9
77488.4
75808.7
73707.8
72983.5
73257.1
96778.7
97050.3
99008.4
101183
104249
108755
114866
106995
82259.4
79632.9
76324.9
75247.3
73349.4
72748.9
73082.5
96777.2
97060
99025.5
100496
104254
108859
115249
108667
52981.9
71548.7
73400
73210.1
72775.1
72340
72763.6
96855
97147.1
97867.9
100594
104016
109045
115806
110499
33687.6
65419
70604.1
70526.6
70661.1
71842.8
72401.1
96917.1
97251.1
98058.2
99503.3
103663
108165
115362
112108
29255.8
60683.4
65767.5
67880.4
70080.9
71430.6
72063.9
96953.1
97318.7
98164.4
99776.8
102491
108783
116008
113055
26304
57476.2
63542.5
67391.5
69708.2
71136.4
71795.1
96970.9
97351.6
98215.7
99847.3
102619
109144
116383
113646
25707.9
57047.1
63377
67123.1
69482.7
70941.1
71609.6
96968.2
97353.2
98224.7
99869.9
102651
109243
116544
113938
25549.2
56867.9
63294.2
67014.3
69366.2
70834
71507.2
92348.2
92190.9
91852.4
91343.3
91086.6
94920.7
98525.9
111823
4329.69
35843.3
50151.2
57788.1
62783
65693.7
67002.6
92307.8
92146.7
91803.1
91287.4
91034.2
94841.2
98436.7
111586
2388.71
36003.8
50263.1
57930.6
62894.8
65774.3
67069.6
92245.7
92074.1
91723.5
91234.5
90936
94677
98229.6
111363
2361.97
36534.9
50777.5
58339.8
63155
65962.3
67223.6
92169
91968.8
91598
91239
93710.9
94540.7
97851.6
111006
6043.52
37902.4
51595.7
59192.4
63652.7
66272.6
67461.4
92079.4
91863.2
91576.5
93232.8
93672.4
96264.4
98667.4
110587
5732.74
39870.9
53764.1
60807.4
64305.2
66682.3
67745.9
91984.6
91850.2
93078.4
93144.8
94843.9
96940.6
98317.6
109729
2278.21
43456.7
56242.4
61863.4
65515.9
67064.3
67982.7
91947.3
91825.9
92964.8
93115.6
95445.4
96799.9
98039.9
109087
1980.24
48250.3
58256.4
63188.9
65846.6
67233
68088.8
91904.7
91778.9
92894.5
94030
95396.2
96729.4
97899.8
108610
38405.8
53459.1
59309.4
63682.5
65913.9
67174.9
68012.4
91886.9
91764.6
92861
93994.8
95368.3
96709.1
97903
108658
52565
49909.2
58037.9
63112.9
65561.6
66912.4
67821.8
91860.1
91729.7
92872.4
93043.4
95352.2
96741.9
98041.3
109173
2271.07
41868.8
55307.3
61664.7
64954.2
66490.5
67494.5
91893.8
91673.2
91382
92970.4
94740
96853.5
98289.9
109735
9411.83
38343.3
53162.5
59840.3
63382.1
65963.3
67100.2
91926.7
91728.4
91362.7
91010.4
93497.2
94434.8
97718.4
110529
5437.49
36994.9
50874.7
58080.3
62736.7
65488.1
66732.4
91950
91781
91436.7
90958.7
90681.5
94369.8
97796.2
110846
3657.95
35942
49774.6
57395.4
62291.7
65159
66450.5
91963
91803
91464.6
90960.5
90729.4
94487.6
98046.7
111140
2859.71
35500.3
49426.6
57063.4
62047.4
64952.9
66263.5
91958.4
91802.5
91468.4
90970.1
90732.7
94569.8
98171.4
111298
3812.78
35270.9
49356.8
56935.9
61925.7
64846.1
66163.1
87301.4
86541.3
84959.6
82424.9
81860.2
80231.6
82463.6
2300.45
27446.8
42789
51706.5
57843.5
61500.8
63200.9
87266.6
86503.6
84918.5
82383.7
81811
80174.1
82400.4
2293.63
27542.1
42871.1
51829.3
57928.9
61561.1
63249.4
87221.6
86458
84863.5
82330.4
81782.6
80111.3
82270.2
2293.05
27670.6
43320.4
52111.8
58118.1
61709.5
63366.8
87181.1
86412.9
84789.5
82433.9
82009.9
80008.2
82055.3
2306.92
28431.2
42643.4
52780.1
58493.4
61961.8
63556.5
87157.6
86392.1
84923.2
84650.1
82556.8
82148
82745.8
2969.31
27953.9
43198.6
52930.9
58969.5
62298.7
63789.8
87138.6
86506
86431.2
84893.7
83927.5
83188.2
82805
2298.55
28838.9
43829.3
53406.5
59159.4
62492.1
63979.2
87131.1
86511.5
86404.4
85011.1
84782.5
83379.1
83084.8
2244.57
24164.5
43961
53587.2
59348.1
62546.8
64029.2
87096.7
86485.3
86376.9
85856.1
84923.9
83517.5
83350.7
2331.06
23443.2
43578.9
53519
59243.1
62470
63941.7
87067.6
86446.7
86336.6
85825
84884.4
83458.6
83255.4
2200.35
23104.6
42786.4
53077.5
58994.6
62253.2
63771.6
87014.4
86384.2
86298.1
84890.1
84675.5
83242.6
82906
2313.8
23608.4
41908.4
52486.2
58635.2
61962.8
63509.2
86966.9
86197.9
84732.1
84501.3
83724.5
83026
82664.1
2294.98
25066.3
41472.5
51982.7
58140.5
61615.9
63169.9
86930.8
86164
84541.9
82198.2
81887.3
79999.9
81677.1
2294.5
26544.3
41895.6
51808.7
57653.3
61219
62856.3
86915.3
86152.4
84563.1
82046.1
81517.4
79867.3
82006.7
2292.67
27170.7
42485.2
51266.1
57310.8
60941.1
62619.8
86907.7
86145.2
84563.9
82044.5
81517.6
79899.8
82133.4
2293.38
27081.5
42158.1
51035
57126.1
60768.7
62465.8
86896.4
86136.6
84558
82036.9
81473.7
79904.1
82176.8
2294.37
27042.7
42100.3
50920.6
57027
60679.8
62382
83153.3
81840
79076.6
74248.8
71460.4
62963
57934.2
2492.33
2296.79
27163.1
40896.7
50050.8
56239.1
59972.5
61750
83118.2
81800.2
79025.3
74182.3
71387.2
62879.2
57873.6
2256.33
2298.6
27172.4
40856.8
50104.6
56261.5
59987.4
61759.3
83076.2
81757.1
78955.9
74049.9
71299
62739.4
57762.9
2250.35
2299.78
23582.2
41113.9
50176.7
56318
60037.4
61794.3
83046.3
81734.9
78860.5
74001.4
71216.1
62571.9
57707.4
2251.63
2318.12
24433.5
38481.1
50404
56434.1
60130.4
61860.6
83048.6
81725
78820.5
77021.7
70971
65700.5
59757.4
3206.3
4279.24
22196.8
37489.6
48815.4
56565.2
60267.3
61943.3
83059.4
81743.7
80816.4
76966.8
73162.3
67326.3
60183.7
2940.5
2288.21
20811
36645.2
48730.1
55542.1
60267.2
61995.1
83052.3
81737.7
80809.7
76916.1
74198.2
67829.6
61480.9
2355.84
2240.1
14536.9
35647.2
47737
55514.9
60199.3
61952.9
83019.4
81718.2
80781.6
78348.1
74300.9
68291.1
63014.6
11597.7
2294.7
4549.28
34514.6
47138.7
55376.7
60104.7
61856.5
82986.8
81672.5
80744.9
78320
74246.8
68163.5
62616.6
19008.5
2262.58
12101.2
34471.8
46962.5
55245.4
59969.9
61736
82932.9
81616.1
80714.9
76794.6
74074.2
67574.7
60843.3
2633.95
2253.44
16511.3
35193.3
47305.1
55110.5
59842.8
61590.6
82850.5
81523.1
78616.1
76892.1
72965.2
67106.6
59971.6
2720.53
2292.61
20320.9
35783.4
48054.5
55923.6
59687.8
61391.1
82782.3
81468.8
78587.7
73725.1
70895.7
62417.7
57723
2539.82
3070.25
22243
37961.7
49659.1
55727.5
59463.4
61215
82750.5
81427.5
78622.6
73725.6
70935.3
62494.8
57743.3
2657.01
2300.36
23442
40452.1
49447.1
55587.4
59320.6
61088.9
82735.3
81412.9
78631.8
73790
71025.8
62588.6
57768.3
2288.79
2298.47
26919.6
40245.1
49385.2
55509.7
59231.9
61007.1
82721.8
81403.5
78632.6
73802.3
71039.7
62625.4
57710.3
2290.92
2301.52
26960.4
40256.1
49319.1
55461.2
59181.3
60957.6
80754.7
79037.4
75369.5
68858
57641
46519.1
19954.8
2291.21
2303.65
30086.2
43409.4
52040
57791.9
61225.2
62855.4
80708.3
78981.7
75283.9
68733.3
57430.4
46300.5
19860.5
2249.05
2305.48
29925.6
43261.5
51998
57737.4
61184.9
62818.2
80647.7
78913.7
75180
68599.4
57134.8
45841.1
19661.4
2241.44
2305.18
24389.2
43125.9
51902.4
57654.5
61122.5
62762.1
80592.6
78872.8
75055.6
68476.2
61612.7
45492.3
19721.4
2259.51
2331.84
24764.9
38839
51744.1
57531.2
61038.9
62689.5
80572.4
78862.4
75055.3
71066
61652.3
49622.3
26525.3
2305.85
3930.11
20934.7
36576.8
48677.3
57369
60964.3
62602
80575.6
78862.5
76669
71090.6
64054.9
51902.1
27619.3
2279.88
2284.55
19716.3
34932.3
48190.8
55269.6
60810.2
62508.9
80556.5
78839.9
76720.8
71119.6
65254.4
52606.4
29450.2
2268.66
2306.74
16518.3
33970.1
46370.4
55052.5
60644.3
62381.3
80523.9
78819.4
76720.4
72509.9
65369.3
53250.5
32487
2376.91
2285.01
12669.6
33199.1
45477.5
54865.9
60533.7
62277.7
80493.1
78780
76685.2
72475.9
65332.9
53219.3
32102.4
2415.68
2257.02
16263.9
33760.6
45499
54810.5
60462.3
62200.3
80453.5
78740.7
76631.8
70994.4
65129.1
52367.7
28669
2240.77
2287.99
21025.2
34714
46378.2
54859.6
60457
62162.7
80367.3
78649.7
74832.1
70973.6
63795.9
51604
27324.3
2293.54
2297.27
20589.1
35073.3
47999.2
56838.8
60461.5
62111.1
80313
78584.5
74745.7
68138.7
61352
45361.9
21408
2290.74
2848.2
21963.1
38297.8
51110.2
56896.8
60430.3
62093.8
80297.4
78550.6
74793.9
68182.6
56695.2
45458.8
19622.7
2289.17
2310.86
24138.6
42528.4
51222.9
56964.9
60442.4
62090.6
80294.2
78553.1
74826.6
68241.3
56911.7
45742.9
19605.5
2269.67
2305.71
29534.8
42615.1
51291.8
57004.9
60452.4
62090.2
80288.5
78555
74856.3
68303.8
57053.7
45983.9
19750
2282.62
2310.72
29650.6
42681.9
51301
57019.6
60449.3
62081.8
80743.5
79021.2
75314.6
68787.3
57698.4
43993.6
7821.37
2294.84
10399
39152.2
50254.7
57506.9
62224
64957.2
66251.8
80679
78941
75179.8
68548.6
57341.1
43182
6793.07
2247.74
12001.8
38910.2
50067.7
57369.4
62096
64868.1
66173.6
80591.4
78837.5
75009.6
68315.4
57347.6
42024.4
8609.53
2269.05
2318.41
29941.6
49665.3
57104.3
61878.6
64712.9
66042.1
80506.1
78760
74877.6
68206.7
59275.6
41249.8
9717.14
2282.86
2319.07
29572.4
43946.5
56709.4
61578.3
64497
65866.4
80462.3
78743.2
74928.4
69545.3
59050.8
43953.6
19629.3
2307.2
2482.75
23938.4
40515.5
52614.5
61236.1
64277.3
65664.3
80454.8
78761.3
75662
69477.6
60594.9
45568.2
20743.6
2271.66
2518.11
22539.9
38143.1
51825
58359.1
64039.8
65476.1
80425.7
78731.2
75676
69477
61355.4
45923.7
23220.5
4909.3
2287.19
20396.7
37153.8
49351.7
57966.8
63807.5
65288.6
80398.4
78711.7
75688.4
70385.4
61369.5
46128.3
22011.4
2403.99
2282.69
18918.7
36540.5
48115.5
57712.3
63662.5
65170.2
80371.3
78685.3
75674.8
70375.6
61392.3
46535.1
28706.8
2310.37
2273.64
21804.2
36928.5
48110.6
57668
63619
65112.8
80346.9
78658.3
75617.3
69428.7
61291.4
45834.1
21720.6
2282.1
2105.24
23380.1
37674.5
49302.8
57827.4
63683.1
65140.4
80259.8
78532
74703.3
69405.1
60328.3
45068.9
19640.9
2288.65
2298.2
23492.4
38259.9
51706.7
60677.6
63779
65187.9
80217.5
78453.8
74525.3
67777.1
58699.9
41072.2
18274.5
2301.72
2297.43
25367.4
42977.2
56000.9
60920.4
63891.3
65284.4
80220.1
78439.8
74555.2
67762.7
56618.4
41043
8811.05
2296.92
9066.09
29536.8
48948.8
56365.7
61167.6
64034.4
65382.3
80235.7
78467.4
74640.5
67904.3
56575
42211.2
6349.12
2246.2
12670.4
38327.7
49289.8
56590.7
61333.9
64133.3
65454.1
80243.9
78488.6
74714.1
68073
56843.4
43050.9
7016.26
2260.44
10045.1
38177.2
49372.1
56685
61413.8
64175.7
65484.4
83278.1
82063.3
79507
75309.8
66746.3
57075.5
23290.6
2326.85
41574.2
58174.7
62026.5
66454.9
69136.2
70678.5
71442.9
83193.9
81951.6
79308.6
74874.5
65757.9
55724.9
11718.2
2330.08
38919.5
57076.2
61655.7
66187.8
68947.5
70554.2
71336.4
83077.5
81806.9
79066
74348.3
67223.6
51677.9
18970.5
2700.58
21527.5
44846.9
61377
65731.8
68621.1
70339.9
71156.5
82959.1
81661.8
78803.5
73987.5
65541.4
49616.2
18452.1
2298.23
4658.82
42227.4
54417.2
65194.2
68191.6
70046.6
70920.9
82886
81585.2
78744
73456
64612.6
49428.4
23304.8
2348.24
2716.03
33299.8
50058.7
60430.2
67794
69754.8
70663.4
82859.8
81596.6
78337.8
73101.8
64458.6
49595.1
25377.1
6177.7
2310.45
30761.5
46787.5
59513.4
64410.2
69501
70436.6
82820.2
81556.5
78231.6
72954.6
64347.1
49004.9
24697.6
2298.76
2308.28
28131.7
45261.7
56513.4
63930.6
69242.8
70217.1
82800.8
81545.3
78233.9
73066.2
64185.6
48553.1
22472
2307.75
2294.35
25824.8
44089.4
54825.5
63619.8
69075.5
70085.3
82784.6
81538.5
78253.2
73106.6
64281.6
48847.2
22370.1
2300.38
2273.9
24002.5
43575.7
54612.1
63533.1
69030.4
70032.3
82776.7
81534.2
78247
73081.6
64459.7
49155.1
25393.5
7717.41
2286.42
25243.8
44268.9
56070.7
63706.6
69107.1
70087.4
82703.3
81398.5
78560
73163.1
64366
49170
22863.9
2338.56
3950
30297.9
45980.5
59139.2
67135.6
69222.7
70178.5
82679.1
81359
78438.3
73500.8
64427.1
48421.6
21682.2
2320.45
2335.28
34910
52683.5
64293.4
67459.3
69418.2
70336.7
82702.5
81393
78559
73655.8
66130.4
49368.1
16456.3
2335.95
17518
42504.9
60300.1
64852.3
67854.4
69648.1
70499.9
82738.9
81449.3
78693.6
74027.9
64389.1
53387.5
3105.66
2327.44
36909.6
55717.3
60590.7
65277.6
68134.9
69808.7
70621.6
82763.3
81497.9
78829.4
74420.3
65377.5
55467.9
17536.8
2321.99
39026.6
56620.7
60916.3
65494.9
68276
69888
70680.9
87763.4
87417
86822.3
87092.4
86913.8
96236.3
138283
129101
103609
85151.2
78543.8
78057.4
77624.5
77622.5
77721.5
87665.7
87277.1
86582.8
86570.5
85742.9
95536.6
138506
118978
98772.4
83770.5
77867.7
77644
77387
77475.8
77600.7
87524.7
87081.3
86261
85147.7
85045.1
78502
82994
68428.5
68673.7
71965
76841.8
76765.5
76983.4
77230.6
77398.1
87371.4
86860.1
85801.8
84360.8
79186.8
72727
56513.5
21438.1
33768.9
67479.7
70886.8
75945.2
76455.5
76902.6
77135.8
87264.5
86707.2
85577.9
81839.1
77855.1
67843.3
43522.5
5777.8
20762.7
54778.9
65944.8
71733.3
75981.6
76576.2
76861.1
87216.1
86666.3
84015.3
81319.6
75516.8
64940.6
39901.5
2273.56
15833.5
50299.7
62042.7
70812.8
72830
76279.5
76636.5
87168
86616.7
83832.9
81150.4
74469.4
63309.1
35844.4
2296.87
10823.4
45932.7
60008.7
67599.1
72347.8
76028.2
76415
87157.8
86619.8
83847.4
80287.9
74299.7
62577
33075.7
2395.53
2343.12
41976.9
58265
65619.3
72077.7
75871.3
76285.7
87155.5
86628.4
83917.4
80420.8
74614
63312.7
33933.1
2606.13
2320.93
38659.1
57219.6
65254.1
71948.9
75818.6
76233.6
87166
86647.9
83968.6
81548.8
75070.3
64646.1
37784.3
2219.76
2298.22
39794.1
57855.1
66787.3
72023.5
75890.5
76294.3
87123
86579.6
85481.4
81560.6
75881.5
65383.9
40277.9
3089.55
18062.3
47315
60187
70114.5
75310.7
76044.9
76390.2
87127.2
86598.9
85489.1
83934.8
77759
70017.7
42283
2288.24
20803.5
56371.5
68386
74935.9
75694.1
76281.8
76571.9
87178.1
86693.8
85768.7
84440.3
83813.5
72836.6
58701.5
48383.8
53557.4
67244.1
75565.2
75811.3
76200.9
76553.7
76767.2
87235.3
86795.2
85975.7
85728.6
84297.8
94056.3
134429
113320
95382.2
81999.8
76595.1
76658.9
76565.3
76748.5
76914.1
87271.9
86870.9
86150.9
86244.9
85451.1
95073.6
136460
122793
99828.3
83416.5
77239.5
77011.9
76759.7
76851.8
76988.8
92952.3
93438.9
94444
97949.9
103510
109828
138076
144444
121513
102155
93150.7
88826.8
85896.2
84656.6
84158.7
92869.9
93321.5
94306.7
97785.1
103276
110791
143154
152132
122864
102321
92773.3
88510.4
85709.1
84520.7
84046.2
92738.3
93097.6
94096.2
96293.7
102007
106949
133504
165378
129713
101709
91595.7
87597.2
85346.8
84276.7
83850.3
92581.2
92857.9
93575.5
95353.6
96051.3
104714
130321
178751
129262
99025.5
89036.3
86504.5
84797.3
83949.3
83594
92462.1
92669.6
93174.2
92295
94185.1
96786.5
108065
196521
113636
91299.3
85649.6
83942.6
84237
83607.4
83320.4
92406.5
92509.2
91210.7
91624.1
91302.8
92134.3
99587.8
142462
94739.3
85871.5
82537.4
83011.4
82091
83254.6
83096.2
92357.4
92437.1
91135
91367.5
89639.8
90323.2
92664.4
122014
79059.4
81475
80675.4
80961.2
81727.6
83019
82897
92357.7
92452.5
91174.4
90264.6
89709.2
90190.1
86469.5
68975.8
61901.2
77437.6
79188.4
79511.1
81453.6
82892.9
82790.8
92365.1
92476.1
91285.6
90491.8
90456.2
93040.2
96461.5
57853.1
34039.6
73156.4
78166.9
79147
81365.8
82851.6
82747.7
92390.9
92530.5
91369.7
91903.4
91158.1
95155
107139
68989.9
46072.2
73867.5
78442.8
80211.1
81447.3
82941.5
82811.6
92374.7
92614.8
93187.9
92264.4
92332.1
94068.1
99769.9
118510
75972.4
80553.9
80289.5
82400.7
83686.1
83162.1
82916.7
92398.5
92674.9
93383.6
95116.6
95165.9
101486
112340
182628
112119
91154.6
86587.8
85649.2
84142
83409.5
83099.8
92456.7
92791.5
93719.3
95792.6
101173
104969
132600
170202
127998
99248.3
90432.6
86732.1
84653.3
83676.2
83292.5
92508.9
92927.3
93824
97189.4
102259
109905
141638
149335
121492
101014
91665.2
87643.2
84980.1
83874.5
83433.2
92531.8
92984.2
93886.9
97343.9
102463
108755
137131
141605
120539
101043
92016.9
87914.5
85130.5
83964
83500.1
97452
98270.3
99586.9
102536
107705
107473
112472
118746
111855
104827
99751.9
95460.4
92191.3
90590.2
89808.5
97432.9
98253.5
99665.8
102948
108340
109163
115862
123283
114118
105932
100057
95496.1
92148.6
90514.6
89735.2
97391.4
98139.1
99837.7
102804
107968
111596
118397
131296
118067
108330
99760.7
95172.6
92019.5
90351.8
89601.2
97313.3
98027.7
99638.5
102876
105339
113877
126942
143530
128279
109566
99914.5
94701.9
91715.2
90115.2
89409.2
97238.8
97909.7
99473.5
100433
105204
112773
130062
163779
136185
111778
99356.3
93622
91344.9
89834.9
89182.8
97189.5
97719.8
97891
100122
103204
111310
131844
163619
137325
111075
98675
93259.4
90206.9
89473.9
88973.1
97162.5
97676.8
97860.4
100096
102360
111280
131708
174154
138818
111258
98436.8
92610.8
90011.5
89295
88822.3
97179.4
97710.6
97920.7
99103.2
102788
112448
133805
163745
151625
112684
98590.1
92240.9
89860.7
89202.3
88747.6
97188.4
97748.2
97998.2
99286.6
103447
115100
143223
170967
143814
112090
98402.7
92114.4
89804.3
89178.7
88715.3
97208
97797.1
98044.7
100608
103609
115736
140348
118839
140588
110170
97829.2
92236.3
89845.8
89252.8
88770.7
97206.5
97924.9
99599.9
100593
104143
113394
134434
174087
136816
109686
97807.2
92871.4
90964.9
89520.8
88882.3
97205
97941.5
99599.3
102955
105514
115084
131047
161112
134691
109993
98835.6
94190.4
91267.2
89716.6
89028.6
97199
97951.5
99646.8
102661
107838
112990
122415
136309
119626
108289
99142.2
94612.7
91518.5
89893.8
89161.3
97170.4
97989.2
99370.8
102702
107900
108821
115591
123115
113981
105243
99437.6
94923.8
91610.7
90006.6
89242.8
97132.6
97950.4
99208.1
102227
107195
106797
112101
118865
112211
104287
99108.8
94857.5
91615.7
90035.7
89270.3
100570
101267
102221
103439
106669
106258
106494
110242
105956
103767
101336
98519.6
96181.4
94885.4
94146.3
100625
101352
102403
104022
107452
107378
108397
111064
107494
104847
101889
98774.8
96265.2
94888.2
94130.4
100719
101410
102810
104768
108056
110008
113906
118617
113652
107449
102395
99007.6
96385.7
94858.9
94096.6
100789
101531
103043
105726
107884
112694
119005
121924
120072
109897
103714
99227
96447.8
94797.4
94027.1
100841
101608
103280
104658
108729
114201
122685
131554
124267
113733