/*--------------------------------*- C++ -*----------------------------------*\
| =========                 |                                                 |
| \\      /  F ield         | OpenFOAM: The Open Source CFD Toolbox           |
|  \\    /   O peration     | Version:  v2012                                 |
|   \\  /    A nd           | Website:  www.openfoam.com                      |
|    \\/     M anipulation  |                                                 |
\*---------------------------------------------------------------------------*/
FoamFile
{
    version     2.0;
    format      ascii;
    class       volScalarField;
    location    "0.022";
    object      p_rgh;
}
// * * * * * * * * * * * * * * * * * * * * * * * * * * * * * * * * * * * * * //

dimensions      [1 -1 -2 0 0 0 0];


internalField   nonuniform List<scalar> 
449343
(
109547
109692
109938
110193
110325
110149
109441
108134
106276
104070
101802
99744.1
98085.5
96935.6
96349.5
109552
109698
109946
110203
110339
110166
109463
108162
106309
104108
101841
99781.5
98119.3
96966.1
96378
109561
109709
109960
110223
110363
110197
109502
108212
106371
104178
101914
99851
98181.8
97021.9
96430
109571
109722
109978
110247
110394
110235
109554
108277
106451
104269
102010
99941.4
98262.2
97092.9
96495.6
109582
109735
109996
110272
110425
110274
109605
108344
106534
104364
102109
100036
98344.8
97164.4
96560.8
109588
109743
110009
110290
110448
110303
109645
108397
106601
104443
102191
100112
98410.4
97219.6
96610.1
109587
109744
110012
110296
110456
110315
109662
108421
106634
104484
102232
100151
98441.3
97243.3
96629.7
109577
109734
110002
110285
110444
110302
109646
108404
106615
104470
102219
100136
98424.2
97224.3
96609.7
109559
109714
109979
110258
110412
110263
109600
108349
106554
104400
102147
100066
98358.5
97162.2
96549.7
109533
109685
109945
110217
110364
110204
109528
108264
106453
104286
102030
99951.7
98252.5
97064.6
96456.9
109503
109652
109905
110168
110307
110135
109444
108160
106331
104148
101887
99812.5
98123.9
96946.5
96344.8
109473
109618
109865
110120
110250
110067
109360
108058
106209
104011
101743
99671.6
97993.2
96825.9
96230.2
109447
109589
109831
110078
110201
110008
109288
107970
106105
103893
101618
99549.3
97879
96720
96129
109428
109568
109805
110047
110164
109966
109235
107906
106029
103807
101528
99460.5
97795.6
96642
96054.3
109418
109557
109792
110030
110145
109943
109208
107873
105989
103762
101480
99414.1
97751.8
96600.9
96014.7
109383
109574
109916
110320
110634
110671
110095
108725
106616
104074
101513
99261.9
97497.7
96297.2
95691.7
109388
109580
109924
110332
110650
110690
110119
108758
106657
104122
101561
99306.5
97536.7
96331.6
95723.4
109396
109591
109940
110354
110679
110724
110164
108817
106734
104211
101654
99391
97609.7
96394.9
95781.6
109408
109605
109960
110383
110716
110766
110220
108891
106833
104331
101779
99504.5
97705.6
96476.5
95855.7
109418
109619
109982
110414
110756
110809
110283
108981
106938
104461
101918
99628.2
97806.9
96560.4
95930.5
109424
109629
109998
110439
110789
110847
110332
109054
107039
104571
102035
99734.9
97890.9
96627
95988.3
109425
109632
110004
110450
110800
110869
110360
109092
107095
104636
102106
99793.2
97933.7
96657.8
96012.8
109415
109622
109995
110441
110791
110857
110346
109026
107071
104622
102097
99781.9
97918
96639.5
95992.9
109396
109602
109971
110410
110755
110813
110292
109009
107001
104541
102011
99699.5
97843.5
96570.9
95927.8
109370
109571
109933
110364
110701
110742
110205
108903
106869
104394
101855
99557.1
97719.5
96461.2
95825.8
109339
109536
109890
110308
110633
110663
110110
108778
106710
104220
101672
99384.9
97569.7
96329.3
95702.9
109309
109502
109847
110254
110567
110593
110016
108655
106569
104050
101490
99215
97420.1
96195.8
95577.9
109283
109472
109811
110208
110512
110533
109941
108562
106450
103907
101339
99072
97291.7
96079.7
95468.4
109264
109451
109784
110175
110471
110488
109887
108493
106363
103806
101232
98970.4
97199.3
95995.1
95388.1
109254
109440
109771
110157
110449
110465
109858
108456
106318
103753
101177
98918.2
97151.3
95950.8
95345.8
108967
109263
109825
110582
111358
111946
111770
110238
107455
104033
100753
98065.8
96074.7
94768.5
94123.4
108972
109269
109835
110597
111379
111969
111800
110282
107514
104102
100822
98126.4
96125.3
94811.5
94162.5
108980
109280
109853
110625
111421
112013
111852
110367
107625
104241
100962
98245.6
96221.9
94892.1
94234.9
108991
109296
109878
110664
111478
112065
111915
110476
107764
104434
101164
98414.5
96353.1
94998.1
94328.5
109002
109313
109907
110710
111537
112115
111961
110566
107919
104673
101404
98607.8
96498
95110.3
94425.2
109009
109326
109932
110748
111594
112161
112024
110684
108106
104867
101644
98788.6
96623.4
95202.9
94502.1
109009
109330
109943
110776
111616
112200
112070
110759
108222
104974
101813
98897.3
96695.8
95249.6
94537.5
109000
109322
109936
110772
111614
112214
112098
110641
108203
104965
101810
98891.7
96682.7
95232.3
94517.5
108981
109300
109909
110735
111565
112138
111988
110647
108089
104850
101691
98779.2
96586.8
95148
94440
108954
109267
109866
110670
111496
112042
111867
110486
107873
104639
101405
98565.5
96418.3
95010.8
94317
108923
109229
109814
110600
111402
111955
111757
110315
107623
104366
101096
98313.2
96220.6
94846.9
94169.3
108893
109193
109764
110532
111318
111880
111684
110198
107443
104093
100819
98076.1
96027.6
94683.8
94020.7
108867
109162
109723
110476
111243
111816
111611
110081
107299
103890
100599
97884.1
95867.3
94544.9
93892.2
108849
109141
109695
110438
111190
111766
111554
109994
107188
103749
100453
97753.7
95754.8
94445.2
93799
108840
109130
109681
110418
111163
111742
111522
109950
107130
103680
100382
97688.7
95697.4
94393.5
93750.4
108172
108620
109514
110837
112466
114083
115055
113213
108945
103664
99171.1
95890.8
93641.5
92236.6
91563.8
108175
108625
109523
110853
112490
114115
115087
113273
109028
103766
99271
95974
93708.5
92292.3
91613.7
108182
108635
109542
110888
112545
114185
115147
113405
109209
104007
99489.5
96144
93839.3
92398.1
91707
108190
108650
109572
110943
112625
114281
115121
113597
109408
104397
99842.5
96397.8
94022.6
92540.3
91829.7
108198
108667
109609
111012
112737
114349
114445
113471
110328
104921
100294
96712.4
94233.5
92694.9
91958.9
108204
108682
109651
111104
112851
113603
114463
113628
110684
106356
100842
97031.8
94428.8
92826.1
92064
108203
108689
109674
111154
112221
113697
114532
113763
110892
106636
102202
97216.7
94543.9
92895.9
92114.8
108193
108683
109673
111155
112214
113729
114586
113706
110928
106698
102244
97215.9
94539
92879.4
92092
108174
108659
109640
111111
112176
113662
114477
113660
110802
106546
102102
97051.5
94400.8
92769
91996.8
108149
108623
109584
111021
112744
113523
114329
113472
110520
106230
100469
96722.3
94163.7
92590
91842.6
108120
108584
109516
110899
112592
114154
114258
113254
110178
104481
99862.7
96325.1
93887.7
92379
91658.2
108093
108547
109458
110809
112460
114072
114847
113245
108974
103942
99392.7
95975.6
93631.4
92173
91475
108071
108519
109414
110740
112368
113969
114879
113070
108815
103575
99048.2
95713.5
93426.6
92001.3
91319.1
108055
108499
109385
110697
112306
113896
114823
112950
108653
103353
98840.5
95543.9
93287
91880.4
91207.6
108048
108490
109372
110677
112279
113864
114794
112896
108578
103260
98746.8
95462.2
93217.1
91818.5
91149.8
106808
107419
108690
110722
113591
117217
121034
118464
111171
102161
96036.2
92315
89988.1
88623.1
87998.1
106808
107420
108696
110735
113614
117254
121057
118512
111282
102309
96171
92421.2
90072.5
88692.8
88060.1
106807
107424
108710
110771
113691
117363
121144
118647
111588
102670
96479.1
92642.3
90239.9
88827.2
88177.3
106807
107431
108734
110851
113878
117599
118973
118939
113420
103602
97085.4
93007.3
90481.7
89010.9
88333.5
106805
107438
108774
110950
114060
116183
119138
119216
114074
106354
97863.1
93462.4
90773
89213.9
88500.3
106802
107451
108835
111166
113230
116455
119365
119503
114655
107288
100435
93978.5
91042.4
89393.8
88638
106793
107443
108836
110598
113311
116621
118538
119022
115228
108625
101090
95998.4
91172.2
89472
88701.9
106784
107440
108887
110582
113345
116655
118603
119121
115443
108876
101335
96133.4
91259.5
89446.5
88680
106765
107415
108804
110548
113296
116584
118492
118967
115204
108645
101058
95935.8
90974.6
89309.3
88556.2
106749
107394
108768
111082
113147
116386
118337
118638
114684
107066
100286
93536.8
90686.7
89097.1
88368.5
106729
107357
108683
110837
113907
116090
118947
118885
113717
106224
97221.7
92927.5
90329.1
88827.9
88141.9
106712
107331
108623
110719
113711
117372
118748
118670
113259
102949
96476.1
92465
90002.2
88575.4
87920.2
106700
107312
108586
110628
113517
117136
120870
118407
111115
102126
95930
92120.9
89753.6
88369.2
87734.6
106691
107299
108563
110585
113437
117028
120799
118231
110851
101816
95660.9
91919.5
89588.9
88226.4
87603.5
106687
107293
108554
110569
113412
116991
120783
118156
110758
101691
95545
91824.2
89507.6
88154.2
87536.3
104637
105360
106925
109624
113949
120825
126489
131841
118128
97111.3
90114.1
86769.9
84853
83853.8
83434.2
104630
105353
106921
109625
113961
120836
126494
131872
118197
97281.8
90271.5
86891.5
84952
83936.3
83507.6
104618
105343
106915
109625
113993
120902
126530
131968
118403
97634.8
90574.1
87121.9
85148
84096.2
83647.1
104600
105329
106915
109679
114338
118811
126726
132270
118949
102708
91340.5
87490.3
85434.3
84320.1
83835.5
104575
105303
106896
109748
113197
119126
127122
130227
121018
104579
95342.7
88074.6
85757
84560
84038.2
104554
105275
106946
109391
113339
118296
125504
129728
122338
108123
96607.9
91039.1
86098.4
84761.4
84206.5
104525
105233
106933
109434
113477
118349
124747
130187
123800
110267
99043.5
91585.9
86223.2
84830.6
84276.5
104503
105194
106963
109486
112876
117889
124813
130431
124387
110795
99416.7
91751.8
88242.7
84743
84231.5
104499
105204
106897
109435
112845
118298
124712
130169
123903
110313
99025
91400.7
85926.7
84619.5
84095.5
104503
105221
106885
109314
113363
118222
124474
129587
122704
109105
98064.2
90794.6
85611.6
84389.3
83880
104502
105226
106811
109646
113084
119070
125073
129930
120954
106502
95067.2
87313.6
85183.5
84089.6
83614.5
104509
105234
106811
109560
114192
118677
126538
131948
118531
102496
90513.7
86794.3
84849.7
83808.1
83358.7
104515
105236
106799
109495
113842
120712
126325
131660
118079
96941.4
89892.6
86494.8
84580.4
83573.3
83147.3
104519
105238
106797
109489
113806
120649
126260
131561
117802
96692.9
89672
86312.8
84403.7
83414.3
83000.2
104521
105240
106798
109485
113793
120639
126258
131524
117707
96562.3
89551.6
86215.2
84316
83334.5
82925.3
101455
102137
103674
106503
111376
118168
134628
164639
121373
88796.1
79384.2
78514.3
78070.3
78005.1
78020.5
101439
102120
103652
106476
111345
118146
134575
164594
121371
88892.3
79538.4
78638
78179.6
78097.2
78102.6
101408
102082
103600
106384
111205
118077
134407
164463
121441
89219
79733.6
78864.9
78394.6
78273.4
78259.3
101362
102026
103526
106165
110631
118379
134259
164200
121822
90202.1
83901.9
79097.8
78704.5
78521.4
78473.2
101295
101931
103328
106262
110606
117460
131273
163983
124478
95955.8
85005.3
82160.4
79009.4
78792.2
78704.3
101225
101783
103827
106290
110355
117342
129756
159056
132150
100721
88974.2
82997.9
81301.1
78994.4
78898.6
101182
101730
103814
106264
110355
116918
129541
159222
136824
104162
91791.1
85441.1
81568.2
79111.8
78988.1
101138
101687
103859
106273
110325
116846
129416
159389
140017
106182
92622
85713.5
81693.8
79046.3
78895.2
101157
101704
103796
106275
110329
116823
129365
159055
137873
104773
91923.9
85337.6
81374.9
78865.3
78773.2
101178
101737
103791
106200
110321
116850
129423
158591
132848
101133
90128.5
84415.1
80874.3
78552.4
78518.8
101226
101859
103254
106175
110485
117308
129622
158584
129300
97928.6
86989.1
81549.8
78298.9
78239.8
78219.4
101276
101938
103431
106065
110396
118121
131175
163653
121916
94097.5
83147.7
78231.4
78014.8
77938.3
77939.1
101310
101981
103496
106273
111087
117932
134180
164013
121133
88777.9
78924.3
78137.4
77752.7
77693.3
77710.3
101332
102011
103540
106358
111220
117992
134340
164260
120933
88386.9
78863.5
77994.4
77577.1
77529
77553.1
101343
102025
103557
106382
111249
118018
134440
164363
120845
88221
78766.7
77909.2
77488.3
77445.2
77473.3
97215.4
97600
98470.1
100111
102886
109492
116814
114278
27319.1
57623.4
64049.2
67770.4
70103.9
71551
72211.9
97193.8
97574.3
98436.7
100064
102828
109418
116732
114101
26899.9
57691.1
64182.8
67908
70227.7
71650.8
72299.8
97147.4
97512.5
98356.5
99965.7
102670
109224
116494
113730
26094.4
58064
64496.4
68267.6
70487.3
71846.1
72470.6
97079.4
97413.4
98221.4
99660.8
103952
108683
115985
113003
27348
59418.6
66841.7
68949.5
70916.2
72134
72711
96980.4
97273.7
97995.7
100794
103613
108965
116416
111766
33338.5
65513.2
70039.3
71342.1
71486.8
72491.6
72980.1
96862.3
97144.9
99121.6
100644
104081
109100
115725
109826
47509.7
70799.2
73512.7
72387.5
73331
72846.9
73205.8
96820.2
97091.5
99077.1
100547
104314
108881
115133
107781
73049.9
77941.8
76101.6
74632.8
73618.5
73027.4
73325.5
96787
97048.7
99030.9
101213
104267
108762
114810
106527
96895.5
82754.4
77479.8
75800.1
73702.9
72983.5
73257.1
96798.3
97069.9
99023.1
101195
104260
108766
114877
107006
82270.5
79644
76335.9
75258.4
73364.1
72768.5
73102.2
96816.4
97099.2
99059.9
100531
104285
108889
115280
108697
53012.6
71579.3
73430.7
73242
72809.4
72379.3
72802.9
96913.8
97205.9
97926.8
100648
104068
109095
115857
110549
33737.9
65469.2
70654.4
70580.6
70720
71901.6
72460
96995.6
97329.6
98136.7
99581.8
103736
108239
115433
112178
29325.7
60754.5
65841.1
67958.9
70159.4
71509.1
72142.4
97051.2
97416.8
98262.5
99874.9
102589
108876
116099
113145
26393.5
57569.4
63640.6
67489.6
69806.3
71234.5
71893.2
97088.6
97469.3
98333.4
99965
102737
109257
116493
113756
25817.1
57159.9
63494.7
67240.8
69600.4
71058.9
71727.3
97105.5
97490.5
98362.1
100007
102788
109375
116674
114067
25678
57000.4
63431.5
67151.6
69503.6
70971.3
71644.6
92210.8
92053.6
91715.1
91206
90949.3
94778.5
98381.2
111677
4183.79
35701.1
50013.9
57650.8
62645.7
65556.3
66865.3
92190.1
92029
91685.4
91169.7
90916.5
94718.6
98311.6
111459
2263.94
35881.2
50145.4
57812.9
62777.1
65656.6
66951.9
92147.6
91976
91625.4
91136.4
90837.9
94574
98124.1
111256
2257.44
36431.9
50679.4
58241.7
63056.9
65864.2
67125.5
92090.5
91890.3
91519.5
91160.5
93627.6
94457.3
97765.8
110919
5956.53
37819.1
51512.4
59113.9
63574.3
66194.2
67382.9
92020.6
91804.3
91517.6
93169.1
93608.7
96198.1
98599.9
110519
5665.3
39803.5
53697.9
60743.6
64246.3
66623.4
67687.1
91945.4
91811
93034.3
93100.7
94797.3
96892.8
98269.8
109680
2233.58
43408.8
56194.6
61819.2
65471.7
67025.1
67943.5
91927.7
91806.3
92940.3
93091.1
95417.2
96771.7
98011.6
109058
1954.9
48222.1
58228.2
63161.9
65822.1
67213.4
68069.2
91904.7
91778.9
92889.6
94022.6
95387.6
96720.8
97891.2
108601
38397.2
53450.5
59300.8
63673.9
65909
67174.9
68012.4
91906.5
91784.2
92875.7
94007.1
95379.3
96720.1
97914.1
108668
52576
49920.2
58048.9
63123.9
65576.3
66932
67841.4
91899.3
91769
92906.7
93077.7
95382.9
96772.6
98071.9
109203
2300.49
41899.4
55337.9
61696.5
64988.5
66529.7
67533.7
91952.7
91732
91440.8
93024.4
94791.5
96903.8
98340.2
109785
9462.11
38393.6
53212.7
59894.3
63441
66022.2
67159.1
92005.2
91806.9
91441.2
91088.8
93570.8
94508.3
97789.5
110598
5507.39
37066
50948.3
58158.7
62815.2
65566.6
66810.8
92048.1
91879.1
91534.8
91056.8
90779.6
94463
97886.9
110934
3747.38
36035.2
49872.7
57493.5
62389.8
65257.1
66548.6
92080.7
91920.7
91582.3
91078.2
90847.1
94600.4
98157.1
111249
2968.45
35613.1
49544.3
57181.2
62165.2
65070.6
66381.2
92095.7
91939.8
91605.7
91107.4
90870
94702.2
98301.4
111426
3941.28
35403.4
49494.2
57073.3
62063
64983.5
66300.5
87164
86404
84822.3
82287.6
81718
80089.3
82318.9
2177.95
27304.6
42651.7
51569.1
57706.2
61363.5
63063.5
87148.8
86385.9
84800.8
82266
81688.4
80051.4
82275.3
2195.23
27419.5
42753.4
51711.5
57811.1
61443.4
63131.7
87123.5
86359.9
84765.4
82232.3
81679.6
80008.3
82164.7
2199.66
27567.6
43222.3
52013.7
58020
61611.4
63268.7
87102.7
86334.4
84711
82355.4
81926.6
79924.9
81969.5
2226.05
28347.8
42560
52701.6
58415
61883.4
63478
87098.8
86333.3
84864.3
84586.3
82493.1
82081.8
82678.3
2901.87
27886.4
43132.4
52867.1
58910.6
62239.9
63731
87099.4
86466.7
86387.1
84849.5
83880.9
83140.4
82757.2
2295.73
28791.1
43781.5
53362.3
59115.2
62452.9
63940
87111.5
86491.8
86379.9
84986.6
84754.3
83350.9
83056.6
2244
24136.3
43932.8
53560.2
59323.6
62527.2
64009.5
87096.7
86485.3
86372
85848.8
84915.3
83509
83342.1
2325.06
23434.6
43570.3
53510.4
59238.2
62470
63941.7
87087.2
86466.4
86351.3
85837.2
84895.5
83469.7
83266.4
2200.58
23115.6
42797.5
53088.5
59009.3
62272.8
63791.3
87053.6
86423.4
86332.4
84924.4
84706.2
83273.3
82936.7
2314.47
23639
41939.1
52518.1
58669.5
62002
63548.5
87025.7
86256.8
84790.9
84555.3
83776
83076.2
82714.4
2316.27
25116.6
41522.7
52036.6
58199.3
61674.8
63228.7
87009.3
86242.5
84620.4
82276.7
81960.9
80073.5
81748.2
2360.91
26615.4
41969.2
51887.2
57731.8
61297.5
62934.7
87013.4
86250.5
84661.2
82144.2
81610.6
79960.5
82097.4
2372.3
27263.9
42583.3
51364.2
57408.9
61039.2
62717.9
87025.4
86262.9
84681.6
82162.2
81630.5
80012.6
82243.7
2389.14
27194.3
42275.8
51152.7
57243.8
60886.4
62583.5
87033.7
86273.9
84695.3
82174.2
81606.1
80036.5
82306.8
2404.2
27175.1
42237.6
51058
57164.4
60817.2
62519.3
83016
81702.7
78939.3
74111.4
71318.2
62820.7
57789.5
2384.19
2174.54
27025.7
40759.4
49913.5
56101.7
59835.1
61612.7
83000.5
81682.5
78907.6
74064.6
71264.6
62756.6
57748.5
2256.22
2194.94
27054.7
40739.1
49986.8
56143.8
59869.6
61641.6
82978.1
81659
78857.8
73951.8
71196
62636.4
57657.4
2250.3
2207.5
23479.2
41015.8
50078.6
56219.9
59939.3
61696.2
82967.8
81656.4
78782
73922.9
71132.7
62488.5
57621.5
2251.12
2236.51
24350.1
38397.7
50325.5
56355.6
60051.9
61782.1
82989.7
81666.2
78761.6
76958
70907.2
65634.3
59689.9
3138.72
4211.8
22129.4
37423.4
48751.6
56506.3
60208.5
61884.4
83020.2
81704.5
80772.2
76922.7
73115.7
67278.5
60135.9
2902.07
2282.39
20763.1
36597.4
48686
55497.9
60228
61955.8
83032.7
81718.1
80785.1
76891.6
74170
67801.4
61452.7
2349.54
2239.89
14508.7
35619
47710.1
55490.4
60179.7
61933.2
83019.4
81718.2
80776.6
78340.7
74292.3
68282.5
63006
11588.5
2293.59
4540.72
34506
47130.1
55371.8
60104.7
61856.5
83006.5
81692.2
80759.6
78332.3
74257.9
68174.6
62627.6
19019
2262.74
12112.3
34482.8
46973.5
55260.1
59989.5
61755.6
82972.2
81655.3
80749.2
76828.9
74104.9
67605.3
60873.9
2642.61
2254.08
16541.9
35223.9
47336.9
55144.8
59882
61629.9
82909.3
81582
78675
76946.1
73016.7
67156.8
60021.8
2733.92
2312.53
20371.2
35833.7
48108.5
55982.5
59746.6
61450
82860.8
81547.2
78666.2
73803.6
70969.3
62491.3
57794.1
2579.47
3140.15
22314.2
38035.2
49737.6
55806
59541.8
61293.5
82848.6
81525.6
78720.7
73823.7
71028.5
62588
57834
2730.85
2383.87
23535.2
40550.2
49545.2
55685.5
59418.7
61187
82853
81530.6
78749.5
73907.7
71138.7
62701.5
57878.6
2290.75
2398.51
27037.3
40362.8
49502.9
55627.4
59349.6
61124.8
82859.2
81540.9
78769.9
73939.6
71172.2
62757.8
57840.3
2291.39
2422.75
27097.7
40393.4
49456.4
55598.5
59318.7
61095
80617.4
78900
75232.2
68720.6
57503.6
46376.8
19810.1
2281.61
2180.62
29948.9
43272.1
51902.6
57654.6
61087.8
62718
80590.6
78864
75166.2
68615.6
57312.7
46177.9
19735.4
2249.01
2193.9
29807.9
43143.8
51880.3
57619.7
61067.2
62700.5
80549.6
78815.6
75081.9
68501.3
57036.7
45738.1
19555.9
2241.37
2211.93
24286.2
43027.8
51804.3
57556.4
61024.4
62664
80514.1
78794.3
74977.1
68397.7
61529.4
45408.9
19635.5
2259.18
2248.51
24681.6
38755.6
51665.6
57452.7
60960.4
62611
80513.5
78803.5
74996.4
71002.3
61588.5
49556.1
26457.9
2305.18
3862.66
20867.2
36510.6
48613.6
57310.2
60905.4
62543.1
80536.4
78823.2
76624.9
71046.5
64008.3
51854.3
27571.5
2279.69
2274.6
19668.5
34884.4
48146.7
55225.5
60770.9
62469.7
80536.8
78820.3
76696.2
71095.1
65226.2
52578.2
29422
2268.01
2297.26
16490.1
33941.9
46343.4
55028
60624.7
62361.7
80523.9
78819.4
76715.5
72502.5
65360.7
53242
32478.4
2375.52
2284.91
12661
33190.5
45468.9
54861
60533.7
62277.7
80512.8
78799.6
76699.9
72488.1
65344
53230.4
32113.5
2424.31
2258.64
16275
33771.6
45510
54825.2
60481.9
62219.9
80492.7
78779.9
76666.2
71028.7
65159.7
52398.4
28699.6
2241.52
2303.05
21055.9
34744.6
46410.1
54893.9
60496.3
62201.9
80426.2
78708.5
74891
71027.6
63847.4
51654.3
27374.6
2295.25
2327.7
20639.3
35123.6
48053.2
56897.7
60520.4
62169.9
80391.5
78663
74824.2
68217.2
61425.5
45435.4
21479.1
2291.96
2917.97
22034.3
38371.3
51188.7
56975.2
60508.8
62172.3
80395.5
78648.7
74892
68280.7
56793.3
45552
19713.5
2290.95
2398.6
24231.8
42626.5
51321
57063
60540.5
62188.7
80411.9
78670.8
74944.3
68359.1
57029.4
45855.7
19715.9
2270.39
2409.04
29652.5
42732.9
51409.5
57122.6
60570.1
62207.9
80425.8
78692.3
74993.7
68441.1
57191.1
46116.3
19879.9
2282.77
2437.21
29787.9
42819.2
51438.3
57156.9
60586.7
62219.2
80606.2
78883.8
75177.3
68649.9
57561.1
43856.3
7679.12
2288.64
10261.7
39014.8
50117.4
57369.6
62086.6
64819.9
66114.5
80561.3
78823.3
75062.1
68430.9
57223.4
43064.3
6670.45
2247.6
11884.1
38792.4
49950
57251.6
61978.3
64750.4
66055.9
80493.3
78739.4
74911.5
68217.3
57249.5
41921.4
8506.52
2268.8
2220.64
29838.6
49567.2
57006.2
61780.5
64614.8
65944
80427.6
78681.5
74799.1
68128.2
59192.2
41166.5
9633.75
2282.64
2236.55
29489
43863.1
56630.9
61499.9
64418.5
65787.9
80403.5
78684.3
74869.5
69481.5
58987.1
43887.4
19561.8
2304.02
2415.76
23871
40449.2
52550.8
61177.2
64218.5
65605.4
80415.6
78722
75617.9
69433.4
60548.3
45520.4
20695.8
2270.89
2472.26
22492.1
38095.3
51780.9
58314.9
64000.6
65436.9
80406.1
78711.6
75651.4
69452.4
61327.2
45895.5
23192.3
4881.11
2284.2
20368.5
37125.6
49324.7
57942.3
63787.9
65269
80398.4
78711.7
75683.5
70378.1
61361
46119.8
22002.8
2403.32
2281.82
18910.1
36531.9
48106.9
57707.4
63662.5
65170.2
80390.9
78705
75689.5
70387.9
61403.3
46546.2
28717.9
2311.46
2277.71
21815.2
36939.5
48121.6
57682.7
63638.6
65132.5
80386.1
78697.5
75651.7
69463
61322.1
45864.7
21751.3
2283.32
2128.47
23410.8
37705.2
49334.7
57861.7
63722.3
65179.7
80318.6
78590.8
74762.1
69459.1
60379.9
45119.2
19691.2
2289.84
2331.07
23542.7
38310.2
51760.6
60736.5
63837.8
65246.8
80295.9
78532.3
74603.8
67855.5
58773.4
41145.7
18345.6
2303.24
2354.23
25438.5
43050.8
56079.4
60998.8
63969.7
65362.9
80318.2
78537.9
74653.3
67860.8
56716.5
41136.2
8904.24
2297.96
9159.27
29630
49046.9
56463.8
61265.7
64132.5
65480.4
80353.4
78585.1
74758.3
68022
56692.7
42328.9
6461.93
2246.61
12788.1
38445.4
49407.5
56708.4
61451.7
64251
65571.8
80381.3
78626
74851.5
68210.4
56980.8
43188.2
7148.69
2261.3
10182.4
38314.6
49509.4
56822.3
61551.1
64313
65621.7
83140.7
81925.9
79369.7
75172.4
66609
56938.2
23153.3
2258.77
41436.9
58037.4
61889.2
66317.5
68998.9
70541.2
71305.6
83076.2
81833.9
79190.9
74756.8
65640.2
55607.2
11600.6
2284.84
38801.8
56958.5
61538
66070
68829.8
70436.4
71218.6
82979.4
81708.8
78967.9
74250.2
67125.5
51574.9
18867.5
2699.96
21424.5
44743.9
61278.9
65633.7
68523
70241.8
71058.4
82880.6
81583.3
78725.1
73909
65458
49532.9
18368.7
2297.86
4573.23
42144
54333.8
65115.7
68113.1
69968.2
70842.4
82827.2
81526.3
78685.1
73392.2
64548.8
49362.2
23237.3
2330.67
2649.21
33232.4
49992.5
60366.4
67735.1
69696
70604.6
82820.6
81557.3
78293.7
73057.7
64412
49547.3
25329.3
6129.88
2271.56
30713.6
46739.7
59469.3
64366
69461.8
70397.3
82800.6
81536.9
78207.1
72930.1
64318.9
48976.7
24669.4
2290.13
2291.8
28103.5
45233.5
56486.5
63906.1
69223.2
70197.5
82800.8
81545.3
78229
73058.9
64177
48544.5
22463.4
2302.77
2292.76
25816.2
44080.8
54816.9
63614.9
69075.5
70085.3
82804.3
81558.1
78267.9
73118.9
64292.6
48858.3
22381.1
2300.49
2277.17
24013.5
43586.7
54623.1
63547.8
69050.1
70051.9
82816
81573.5
78281.3
73115.9
64490.4
49185.8
25424.2
7748.07
2293.93
25274.5
44299.5
56102.5
63740.9
69146.3
70126.6
82762.2
81457.4
78618.8
73217
64417.5
49220.3
22914.2
2359.58
4000.06
30348.2
46030.8
59193.1
67194.4
69281.5
70237.4
82757.6
81437.5
78516.8
73579.3
64500.7
48495.2
21753.4
2320.91
2402.42
34981.1
52757.1
64371.9
67537.8
69496.7
70415.2
82800.6
81491.1
78657.1
73753.9
66228.5
49461.3
16549.5
2338.59
17611.2
42598.1
60398.2
64950.4
67952.5
69746.2
70598
82856.6
81567.1
78811.3
74145.6
64506.8
53505.3
3222.12
2371.73
37027.3
55835
60708.4
65395.3
68252.6
69926.4
70739.4
82900.6
81635.2
78966.7
74557.6
65514.9
55605.2
17674.1
2392.66
39163.9
56758
61053.6
65632.3
68413.3
70025.4
70818.2
87626.1
87279.6
86685
86955
86776.5
96098.9
138146
128963
103472
85013.9
78406.4
77920
77487.1
77485.2
77584.2
87548
87159.4
86465.1
86452.8
85625.2
95418.9
138388
118860
98654.6
83652.7
77750
77526.3
77269.3
77358.1
77483
87426.6
86983.2
86162.9
85049.6
84947
78399
82891
68325.5
68570.7
71862
76743.7
76667.4
76885.3
77132.5
77300
87292.9
86781.6
85723.3
84282.4
79103.4
72643.6
56430.1
21352.3
33683.1
67396.3
70803.5
75866.7
76377.1
76824.1
77057.3
87205.6
86648.3
85519
81775.3
77791.3
67777.1
43455
5710.36
20695.3
54711.4
65878.6
71669.6
75922.7
76517.4
76802.3
87176.8
86627.1
83971.2
81275.5
75470.2
64892.8
39853.7
2240.79
15785.7
50251.9
61994.9
70768.7
72785.8
76240.2
76597.2
87148.4
86597.1
83808.3
81125.9
74441.2
63280.9
35816.2
2272.83
10795.2
45904.5
59980.5
67572.2
72323.3
76008.5
76395.4
87157.8
86619.8
83842.5
80280.5
74291.1
62568.4
33067.1
2387.09
2338.64
41968.3
58256.4
65610.7
72072.8
75871.3
76285.7
87175.2
86648
83932.1
80433.1
74625.1
63323.7
33944.2
2614.39
2328.65
38670.1
57230.6
65265.1
71963.6
75838.2
76253.3
87205.3
86687.2
84003
81583.1
75100.9
64676.8
37815
2224.89
2312.18
39824.8
57885.7
66819.2
72057.8
75929.8
76333.5
87181.9
86638.5
85540.3
81614.6
75933
65434.2
40328.2
3139.77
18112.6
47365.3
60237.3
70168.4
75369.5
76103.7
76449
87205.7
86677.4
85567.6
84013.3
77832.6
70091.3
42354.2
2357.16
20873.4
56442.7
68459.5
75014.4
75772.5
76360.3
76650.4
87276.2
86791.9
85866.8
84538.4
83911.6
72929.8
58794.7
48477
53650.6
67337.3
75663.3
75909.4
76299
76651.8
76865.3
87353
86912.9
86093.4
85846.3
84415.5
94174
134547
113438
95499.9
82117.6
76712.9
76776.6
76683
76866.3
77031.8
87409.2
87008.3
86288.2
86382.2
85588.4
95211
136597
122931
99965.6
83553.8
77376.8
77149.2
76897.1
76989.2
77126.1
92815
93301.5
94306.6
97812.5
103372
109691
137939
144307
121376
102018
93013.4
88689.5
85758.9
84519.3
84021.4
92752.2
93203.7
94189
97667.4
103159
110673
143036
152014
122746
102203
92655.6
88392.6
85591.3
84403
83928.5
92640.2
92999.5
93998.1
96195.6
101909
106846
133401
165275
129610
101606
91497.6
87499.1
85248.7
84178.6
83752.2
92502.7
92779.5
93497
95275.1
95967.9
104631
130238
178665
129177
98942.1
88952.9
86426
84718.9
83870.8
83515.5
92403.3
92610.7
93115.4
92231.2
94121.3
96720.3
107998
196454
113569
91231.9
85583.4
83878.8
84178.1
83548.5
83261.6
92367.2
92469.9
91166.6
91580
91256.2
92086.5
99539.9
142414
94691.5
85823.7
82489.6
82967.2
82046.9
83215.4
83056.9
92337.8
92417.5
91110.5
91343
89611.6
90295
92636.2
121986
79031.2
81446.8
80647.2
80934.3
81703
82999.4
82877.4
92357.7
92452.5
91169.5
90257.3
89700.6
90181.5
86460.9
68967.3
61892.6
77429.1
79179.8
79502.5
81448.7
82892.9
82790.8
92384.8
92495.7
91300.3
90504.1
90467.2
93051.3
96472.6
57864.1
34050.6
73167.4
78178
79158
81380.5
82871.2
82767.3
92430.1
92569.7
91404
91937.8
91188.8
95185.6
107169
69020.5
46102.9
73898.2
78473.5
80243
81481.7
82980.7
82850.8
92433.6
92673.6
93246.8
92318.3
92383.6
94118.4
99820.1
118560
76022.7
80604.2
80339.8
82454.6
83744.9
83221
82975.6
92477
92753.4
93462.1
95195.1
95239.5
101559
112411
182698
112189
91225.8
86661.4
85727.6
84220.5
83488
83178.3
92554.8
92889.6
93817.4
95890.7
101272
105062
132693
170295
128091
99341.5
90530.7
86830.2
84751.4
83774.3
83390.6
92626.6
93045
93941.7
97307.1
102377
110023
141755
149453
121610
101132
91782.9
87760.9
85097.9
83992.2
83550.9
92669.2
93121.6
94024.2
97481.2
102600
108892
137268
141743
120676
101180
92154.3
88051.8
85267.9
84101.3
83637.5
97314.7
98132.9
99449.6
102399
107568
107335
112335
118608
111718
104690
99614.6
95323.1
92054
90452.8
89671.2
97315.1
98135.8
99548
102830
108223
109045
115744
123166
114000
105814
99939.5
95378.3
92030.8
90396.9
89617.5
97293.3
98041
99739.6
102706
107869
111493
118294
131193
117964
108227
99662.6
95074.5
91921.4
90253.7
89503.1
97234.8
97949.3
99560
102797
105256
113793
126858
143444
128193
109483
99831.1
94623.5
91636.8
90036.7
89330.7
97179.9
97850.8
99414.6
100370
105140
112707
129994
163711
136118
111710
99290.1
93558.2
91286.1
89776
89123.9
97150.2
97680.5
97846.9
100078
103157
111262
131796
163571
137277
111027
98627.1
93215.2
90162.8
89434.7
88933.9
97142.9
97657.2
97835.8
100071
102332
111252
131680
174125
138790
111230
98408.6
92583.8
89987
89275.4
88802.6
97179.4
97710.6
97915.8
99095.9
102780
112440
133797
163737
151617
112676
98581.5
92232.4
89855.8
89202.3
88747.6
97208
97767.8
98012.9
99298.8
103458
115111
143234
170978
143825
112101
98413.7
92125.4
89819
89198.3
88734.9
97247.2
97836.3
98079.1
100642
103639
115767
140379
118870
140619
110200
97859.9
92268.1
89880.1
89292.1
88809.9
97265.4
97983.8
99658.8
100647
104194
113444
134485
174137
136867
109736
97857.5
92925.3
91023.7
89579.6
88941.2
97283.5
98020
99677.8
103034
105588
115157
131118
161182
134761
110064
98909.1
94268.9
91345.7
89795.1
89107.1
97297.1
98049.6
99744.9
102759
107936
113083
122508
136403
119719
108382
99240.3
94710.8
91616.6
89991.9
89259.4
97288.2
98106.9
99488.5
102820
108018
108939
115709
123232
114099
105361
99555.3
95041.6
91728.4
90124.4
89360.5
97269.9
98087.7
99345.4
102364
107332
106934
112238
119002
112348
104424
99246.2
94994.8
91753.1
90173.1
89407.6
100433
101129
102084
103302
106532
106121
106357
110105
105818
103629
101199
98382.3
96044
94748
94009
100507
101234
102286
103904
107334
107260
108279
110946
107377
104729
101771
98657
96147.5
94770.5
94012.7
100621
101312
102712
104670
107958
109905
113803
118514
113549
107346
102297
98909.5
96287.6
94760.8
93998.5
100710
101452
102964
105648
107801
112611
118922
121838
119986
109813
103631
99148.6
96369.3
94718.9
93948.6
100782
101550
103221
104594
108666