/*--------------------------------*- C++ -*----------------------------------*\
| =========                 |                                                 |
| \\      /  F ield         | OpenFOAM: The Open Source CFD Toolbox           |
|  \\    /   O peration     | Version:  v2012                                 |
|   \\  /    A nd           | Website:  www.openfoam.com                      |
|    \\/     M anipulation  |                                                 |
\*---------------------------------------------------------------------------*/
FoamFile
{
    version     2.0;
    format      ascii;
    class       volScalarField;
    location    "0.021";
    object      p;
}
// * * * * * * * * * * * * * * * * * * * * * * * * * * * * * * * * * * * * * //

dimensions      [1 -1 -2 0 0 0 0];


internalField   nonuniform List<scalar> 
449343
(
105497
105623
105832
106024
106097
105807
104982
103548
101561
99233.7
96861.8
94720.4
93001
91812.1
91207.2
105479
105606
105815
106008
106080
105789
104963
103530
101544
99219.4
96848.8
94707.3
92986.8
91796.9
91191.3
105464
105591
105801
105993
106064
105771
104944
103511
101529
99209.1
96841.8
94700.2
92977.6
91785.4
91178.6
105449
105577
105788
105980
106049
105751
104923
103490
101514
99200.6
96839.3
94698.1
92972.4
91776.9
91168.2
105435
105564
105776
105968
106034
105730
104900
103468
101498
99193.4
96839.7
94698.9
92969.2
91769.5
91158.4
105421
105550
105762
105954
106019
105709
104877
103448
101484
99188.3
96840.5
94699.6
92965.2
91760.9
91147.3
105404
105534
105747
105938
106000
105689
104857
103428
101470
99181.1
96835.2
94695.3
92956.5
91748.1
91132.4
105383
105514
105727
105919
105980
105668
104831
103401
101444
99162.5
96819.3
94679.1
92938.3
91728.2
91111.7
105359
105489
105702
105894
105957
105646
104813
103385
101426
99136.7
96790
94649.2
92909.5
91700.5
91084.4
105332
105462
105674
105866
105931
105622
104790
103361
101397
99099.3
96750
94607.4
92871.3
91665.7
91051.4
105303
105432
105644
105836
105903
105599
104769
103337
101366
99059.6
96703.7
94560.6
92828.6
91627.1
91015
105273
105402
105612
105805
105875
105577
104749
103315
101337
99022.1
96658.2
94514
92785.6
91588
90978.1
105245
105373
105583
105776
105847
105553
104727
103293
101309
98986.6
96616.2
94471.3
92745.7
91551.2
90943.1
105219
105346
105556
105748
105821
105530
104703
103269
101281
98953.9
96580
94435
92711.4
91519
90912.1
105196
105323
105532
105725
105797
105507
104682
103246
101257
98927
96551.7
94406.8
92684.1
91492.8
90886.5
105355
105529
105839
106185
106431
106365
105671
104169
101925
99256.7
96586.4
94248.6
92422.2
91182.6
90558.3
105337
105512
105822
106169
106415
106347
105652
104150
101909
99244.4
96575.5
94236.6
92408.4
91167.3
90542.2
105322
105497
105809
106157
106402
106330
105633
104134
101897
99239.2
96574
94232.6
92400.1
91155.8
90529.2
105308
105485
105798
106147
106390
106309
105607
104104
101879
99235.8
96580
94235.7
92396.6
91147.4
90518.4
105294
105473
105789
106138
106380
106281
105578
104077
101848
99235.2
96593.1
94244.3
92396
91140.3
90508.3
105280
105460
105779
106130
106370
106262
105552
104056
101841
99238.2
96607.4
94254.2
92395.5
91132.2
90496.9
105263
105445
105766
106118
106351
106248
105534
104039
101831
99243.6
96626.4
94261.4
92390.1
91120.3
90481.9
105243
105425
105747
106100
106332
106226
105505
103963
101799
99224.2
96613.9
94247.6
92372.4
91100.8
90461.1
105219
105400
105722
106074
106307
106204
105490
103995
101788
99199.7
96581.5
94215.3
92342.8
91072.2
90433.3
105191
105371
105691
106042
106282
106175
105465
103970
101754
99150
96517.3
94161.8
92300.9
91035.9
90399.6
105161
105340
105656
106006
106248
106150
105447
103946
101717
99102
96457
94105.1
92253.9
90996
90362.8
105131
105308
105622
105971
106215
106135
105432
103929
101703
99057.3
96398.1
94050.1
92207.6
90955.7
90325.4
105102
105278
105590
105938
106184
106112
105415
103915
101676
99015.8
96346.9
94001.5
92165.3
90918.2
90290.1
105076
105251
105561
105908
106155
106086
105391
103889
101645
98977.3
96304.6
93961.6
92129.5
90885.5
90258.9
105052
105227
105537
105883
106130
106063
105369
103866
101620
98948.1
96273.8
93931.8
92101.6
90859
90233.1
104989
105271
105809
106517
107228
107730
107428
105754
102825
99261.2
95859
93076.3
91018.6
89671.8
89007.6
104971
105254
105794
106503
107215
107714
107408
105736
102811
99253.9
95852.6
93066.4
91005.2
89656.2
88991.1
104955
105241
105784
106497
107209
107703
107387
105722
102803
99263.4
95864.5
93068.4
90998.3
89644.5
88977.3
104941
105229
105778
106496
107209
107680
107344
105694
102763
99275.3
95896.5
93083.9
90997.8
89635.9
88965.5
104928
105220
105775
106499
107210
107640
107254
105596
102691
99314.6
95941.7
93108.7
91002.5
89628.9
88954.2
104915
105211
105774
106505
107222
107609
107215
105582
102698
99350.9
96002.9
93140.4
91007.8
89621.6
88941.7
104899
105198
105764
106503
107199
107604
107192
105562
102692
99370.9
96125.1
93173.1
91011
89610.2
88925.5
104879
105179
105747
106489
107189
107597
107197
105566
102666
99356.2
96114.4
93162.9
90995.8
89591.9
88904.8
104854
105153
105720
106459
107155
107560
107149
105520
102650
99328.4
96081.4
93127.2
90963.4
89561.1
88875.7
104825
105121
105685
106415
107134
107522
107130
105498
102613
99264.7
95914.1
93047.8
90911.5
89522.6
88841.3
104793
105085
105641
106366
107078
107509
107125
105468
102562
99183
95806.2
92968.4
90857.4
89480.3
88803.7
104762
105050
105599
106318
107032
107505
107169
105520
102589
99097.3
95713.5
92895.4
90804
89438.2
88765.7
104732
105018
105562
106276
106989
107482
107167
105502
102582
99038.4
95634.4
92832.5
90757.1
89399.2
88729.9
104706
104990
105530
106240
106952
107451
107146
105472
102545
98983.5
95577.1
92785.2
90718.6
89365.6
88698.3
104683
104966
105504
106213
106924
107426
107124
105449
102516
98948.6
95541.1
92752.5
90689.6
89338.7
88672.4
104269
104710
105591
106882
108449
110035
110863
108860
104422
98981.4
94342.4
90948.4
88623.9
87174.6
86481.4
104251
104693
105577
106872
108440
110025
110838
108843
104408
98980.5
94340.9
90939.1
88609.4
87157.7
86463.6
104234
104679
105569
106874
108451
110029
110820
108849
104435
99028.8
94371.4
90944.3
88600.9
87143.8
86447.6
104218
104668
105570
106893
108472
110042
110645
108849
104327
99138.4
94455.6
90969.1
88599
87132.3
86432.6
104203
104660
105576
106913
108511
109983
109871
108561
105152
99329
94575.7
91019.1
88602.7
87120.7
86416.9
104190
104655
105596
106978
108596
109188
109750
108532
105207
100603
94739.6
91082.6
88612.3
87108.7
86400.2
104171
104643
105597
106986
107928
109211
109712
108495
105184
100641
96055.7
91129.2
88610.1
87092.8
86379.3
104152
104628
105588
106978
107914
109216
109724
108391
105176
100650
96033.9
91121.5
88607.7
87079.4
86357
104126
104598
105552
106941
107884
109180
109678
108444
105152
100618
96012.4
91083.9
88562.1
87042.3
86327.2
104097
104562
105504
106887
108508
109114
109650
108432
105111
100559
94655.1
90990.3
88513.4
87005
86294.1
104065
104522
105440
106778
108378
109852
109733
108435
105075
99201.3
94442.9
90877.4
88452.9
86965.1
86258.1
104034
104485
105388
106712
108293
109866
110469
108675
104156
98962.7
94272
90776
88397.2
86924.1
86221.3
104006
104451
105343
106649
108228
109807
110600
108629
104214
98801.7
94136.5
90700.4
88348.7
86885.5
86186.1
103980
104423
105308
106604
108174
109759
110572
108577
104137
98704.6
94057.5
90647.2
88309.6
86852.1
86154.8
103957
104399
105281
106573
108141
109727
110556
108551
104109
98662.2
94015.4
90612.8
88280.5
86825.4
86129.1
102997
103610
104888
106921
109764
113352
117102
114327
106824
97645.6
91325.1
87460.7
85044.7
83627.9
82979.9
102975
103590
104872
106912
109762
113352
117078
114315
106826
97658.8
91324.9
87446.2
85025.5
83608
82959.8
102953
103572
104862
106919
109798
113398
117083
114324
106895
97729.8
91359.4
87440.4
85007.7
83587.8
82939.1
102931
103556
104864
106978
109959
113531
114780
114413
108535
98197.8
91541.1
87465.5
84992.9
83569.5
82917.3
102907
103539
104875
107028
110027
112030
114741
114340
108627
100543
91737.4
87496
84976.6
83539.9
82891.2
102888
103538
104923
107222
109159
112204
114753
114223
108601
100834
94012.3
87610.7
84952.5
83520.9
82864.9
102860
103511
104909
106623
109219
112297
113826
113566
108997
101891
94239.5
89478.1
84876.1
83472.2
82829.6
102842
103502
104956
106618
109252
112325
113839
113550
109037
101953
94324.2
89535.2
84979.3
83452.6
82809.7
102814
103465
104864
106578
109212
112291
113797
113535
108989
101927
94278.2
89496.3
84828
83419.6
82773.6
102791
103442
104829
107130
109074
112145
113826
113506
108925
100862
94048
87520.3
84850.5
83409.4
82750
102764
103398
104736
106891
109893
111955
114596
114109
108445
100589
91614
87354.4
84819.7
83374.2
82719.2
102740
103367
104677
106793
109777
113352
114588
114240
108488
98031.5
91358.8
87265.3
84777.9
83343.4
82687.6
102717
103337
104629
106690
109572
113173
116858
114140
106670
97499.4
91117.3
87183.7
84738.2
83309
82655.3
102696
103312
104595
106637
109489
113081
116807
114056
106550
97374.8
91029.3
87137.4
84704.9
83278.7
82625.9
102675
103290
104569
106605
109450
113038
116788
114019
106504
97316.1
90983.5
87106.2
84678.8
83253.6
82601.1
100920
101657
103254
105996
110356
117229
122783
128042
114180
92909
85604.3
82074.8
80040.1
78974.9
78527.3
100893
101632
103232
105983
110360
117234
122772
128018
114152
92891
85582.1
82042.5
80011.7
78950.5
78504.3
100859
101600
103206
105965
110375
117288
122771
127998
114112
92857.1
85536.2
81983.1
79970.3
78919.9
78477.2
100823
101572
103198
106021
110782
115125
122874
128068
114096
97408.2
85629.5
81871.3
79923.4
78885.9
78445.4
100776
101523
103160
106087
109548
115409
123147
125672
115529
98141.1
88944.4
81766.1
79796.2
78824.1
78404.2
100741
101486
103207
105652
109648
114454
121386
124614
115582
100555
89176.9
84216.3
79685.7
78750.4
78358.8
100696
101431
103180
105681
109778
114494
120477
124639
116192
101652
90992.3
84299.1
79578.1
78673
78307.4
100664
101387
103156
105725
109112
113968
120496
124641
116245
101793
91047.6
84329
81514.1
78609.8
78276.1
100646
101381
103131
105670
109082
114429
120473
124619
116224
101780
91024.2
84262.6
79523.1
78612.4
78243.5
100640
101386
103111
105550
109678
114432
120391
124588
116150
101624
90962.4
84217.8
79584.5
78629.8
78230.9
100627
101376
103017
105946
109420
115340
121170
125493
115500
100328
89019
81625.4
79629.1
78638.8
78211
100622
101373
103002
105831
110597
114997
122740
127923
113987
97465.2
85450.7
81660.6
79685.8
78637.2
78188.3
100612
101355
102965
105727
110142
117060
122562
127773
113904
92621
85281.8
81706.1
79675
78607.8
78159.3
100600
101340
102944
105698
110079
116957
122490
127738
113870
92594.5
85267.5
81707.7
79659.4
78585.4
78132.6
100584
101324
102924
105669
110033
116909
122466
127721
113854
92561.3
85239.1
81691.4
79640.2
78562.7
78108.7
97818
98531.4
100128
103047
108035
114902
131434
161205
118003
85122.6
75205.8
74066.3
73456.8
73305.7
73285.1
97783.3
98496.3
100093
103011
108007
114878
131394
161158
117831
85012.2
75124
74001
73419.1
73278.1
73260.6
97731.3
98438.1
100025
102920
107882
114832
131294
161083
117727
84925
74980.8
73896.7
73359.6
73238.3
73229.9
97667.3
98370.3
99951.2
102694
107240
115182
131270
160935
117431
84958.6
78291.5
73549
73262.5
73182.7
73191.5
97581.1
98259.1
99750
102741
107256
114284
128304
160772
118319
88888.1
78016.1
75713.9
73016.7
73098.3
73138.7
97495.7
98101.1
100186
102786
106982
114251
126880
155743
123306
91067.7
80372.1
75645.4
74687.9
72985.2
73082.2
97434.8
98035.7
100159
102765
106997
113801
126772
155677
123727
91492
81842.7
77243.4
74646.1
72958
73042.3
97381.4
97982
100191
102765
106976
113758
126720
155674
124222
91924.4
82024.8
77297.7
74656.5
72944
72988.1
97383.1
97985.1
100122
102761
106975
113741
126701
155643
124100
91900.6
82024.1
77281.3
74587.4
72887.5
72968.1
97388.7
97995.8
100099
102676
106946
113738
126716
155614
123662
91483.3
81821.4
77192.2
74579.2
72840.8
72930.7
97421
98103.8
99599.4
102601
107127
114174
126789
155664
123423
91120.2
80418.3
75555.8
72823.5
72882
72911.7
97453.7
98159.3
99744.2
102497
106950
114937
128139
160669
117574
89120
78060.2
73319.7
72995.1
72892.8
72891
97466.6
98177
99770.7
102670
107638
114591
131057
160771
117426
84729.4
74703.6
73586.7
73019.5
72879.3
72861.5
97470.3
98186.1
99787.5
102712
107715
114600
131082
160836
117472
84697.7
74781.1
73625
73018.4
72859.8
72833.2
97461.4
98177.8
99780.1
102705
107699
114569
131091
160852
117568
84711
74805.1
73638.8
73005.7
72837.7
72808.4
93630.1
94060.6
95023.2
96803.8
99743.5
106481
114022
111924
26688.4
54789.2
60335.5
63654.4
65764.2
67099.6
67713.7
93587.8
94015.7
94973.9
96743.8
99691.5
106426
113975
111823
24358.7
54522.7
60195.9
63588.9
65734.6
67076.4
67693.1
93518.8
93934.4
94881.3
96653
99558.8
106307
113864
111723
24191.7
54403.1
60075.8
63555
65707.4
67052.2
67673.1
93427.2
93814
94735.3
96343.1
100801
105882
113599
111601
24230.1
54464.5
61422.5
63618.4
65693.5
67025.1
67654.9
93305.3
93659.5
94495
97442.5
100537
106253
114317
111412
24294.2
57744.7
62965.2
64900.8
65775.2
67028.6
67636.5
93167.9
93500.7
95583
97308.6
100975
106455
114096
111063
24408.8
58503.7
64163.9
65144.3
66842.8
67094.4
67622.8
93101.6
93427.5
95539
97213.9
101198
106371
113957
110820
28107.3
59689.5
64779.3
66226.9
66872.1
67127.4
67621
93053.7
93367.1
95484.7
97814.6
101176
106327
113886
110624
33245.2
60995.6
65284.8
66871.3
66952
67144.3
67582.4
93046.2
93375.2
95461.7
97785.9
101160
106315
113877
110648
34215.1
61262.8
65324.4
66860.5
66866.9
67042.5
67528.5
93051.1
93389.7
95477.5
97159.2
101139
106328
113918
110774
27681.4
59813
64804.8
66152.5
66730.9
66916.8
67434.7
93129.4
93487.4
94328.7
97239.3
100888
106366
114008
110939
26287.9
58727.3
64123.2
64841.1
65542.6
66763
67357.1
93192.2
93584.5
94519.4
96136
100517
105397
113121
111272
24960
56336.7
61187.4
63350
65370
66672.7
67289.1
93228
93648.1
94604.6
96392.4
99306.5
105856
113460
111360
23694.5
54174
59777.7
63187.5
65301.3
66621.3
67229.8
93245.7
93678.2
94645.1
96425
99385.1
106097
113616
111432
23977.3
54172.9
59811.5
63153.7
65263.1
66580.3
67185.1
93242.6
93677.4
94648.7
96441
99392.7
106130
113657
111464
24059.3
54263.6
59885.8
63162.6
65238.9
66551
67153.5
88627.9
88528.6
88307.5
87978.9
87928.7
91969.3
95772.3
109031
6339.62
33442.7
46733.8
53909.3
58629.5
61406.3
62659.2
88583
88480.6
88256.9
87923.4
87888.9
91910.6
95719
108826
2347.9
33353.3
46639.9
53893.1
58621.3
61394.2
62647.5
88512.3
88401.7
88172.8
87874.5
87822.6
91789.9
95605.1
108713
2428.27
33312.5
46663
53943.9
58646.4
61406
62650.5
88421.9
88283.9
88055.9
87904
90562.6
91707.9
95373.6
108567
2323.93
33476.9
46757.4
54233.8
58735.1
61448.6
62674.5
88312.4
88155.1
87982.4
89855.4
90561
93529.2
96426.5
108552
5688.36
33322.4
47470.5
54961.1
58930
61552.9
62721.8
88195.7
88108.2
89515.2
89757.8
91774.7
94302.2
96283.5
108144
3153.05
34274.5
48184.9
55172.6
59593.3
61663.4
62775.4
88143.6
88069.1
89401.4
89714.6
92399.2
94216.9
96209.4
108052
21926.7
35903
48922.5
55758.4
59682
61702.7
62787.2
88098.1
88017.8
89333.5
90677.2
92357.1
94197.7
96207.4
107984
4616.6
37768.3
49628.1
56184.3
59713.9
61705
62745.6
88079.5
88008.5
89307.3
90653
92353.4
94207.4
96230.4
108022
26860.1
38772.9
49716.5
56173.8
59641.9
61592.5
62666
88065.2
87986
89324.9
89682.1
92363.6
94221.1
96235.6
108029
16715.8
36199.9
48974.7
55672.3
59503.8
61437
62532.2
88112.5
87962.5
87811.9
89643.9
91731.2
94270.1
96250.6
108058
2261.02
34149.7
48096.4
54850
58624.8
61209.7
62362.6
88154.5
88023.2
87808.9
87684.5
90416
91681
95385.6
108411
2680.91
33425.7
46853.1
53877.8
58320.4
61000.6
62211.7
88182.4
88078
87861.7
87581.6
87554.3
91515.4
95258.2
108348
2387.01
33232.7
46300.5
53487.5
58140
60868.9
62098.9
88197.7
88101.7
87891.8
87580
87565.7
91573.1
95371.1
108440
2349.73
33095.2
46192.7
53370.9
58046
60787
62025.2
88195.2
88102.2
87894.5
87586.4
87557.4
91617.5
95419.6
108490
3061.06
33014.9
46218.9
53327.4
57997.8
60743.8
61981.9
83518.4
82825.3
81383.6
79081.7
78669.3
77425.9
79906.9
2303.89
25644.1
39708.3
48126.6
54000.1
57527.4
59174.3
83474.3
82778.5
81335.8
79035.6
78614.3
77367.1
79849.9
2294.9
25612.2
39675.8
48147.1
53999.1
57521.5
59166.7
83411.9
82716.1
81263.1
78963.7
78582.5
77310.9
79744.2
2294.74
25385.7
39756.6
48197.4
54033.7
57546.6
59178.5
83345.9
82645.7
81179.5
79079.2
78828.6
77213.3
79556.4
2299.11
25463.6
38590.2
48485.7
54132.7
57609.7
59213.4
83286.7
82587.2
81262.6
81122.4
79346.5
79306.5
80240.9
2293.95
23226.6
38176.3
48051.1
54318.5
57731.4
59271.5
83229.8
82666.2
82683.6
81347
80692.6
80278.4
80189.7
2290.78
23705.4
38253.5
48251.8
54122.5
57769.6
59333.2
83196.1
82649.9
82612.6
81426.7
81498.9
80345.7
80246.5
2260.12
25030.9
38902.5
48212.3
54241.8
57755.9
59312
83150.2
82614.4
82575.5
82291.1
81618.3
80449.6
80438.8
36166.4
27279.2
39566.6
48322.3
54240.5
57717.9
59244.7
83120.7
82583.4
82541.1
82289.6
81636.1
80523.4
80620.5
2293.66
26677.4
39660.5
48315.5
54161.9
57594.5
59146.2
83076
82525.2
82529.8
81377.4
81518.6
80455.9
80498
2603.36
25356.5
39011.9
48106.9
54005.1
57453.7
59005.8
83050.6
82361.7
81072.2
80971.9
80603.5
80295.8
80270.4
2298.15
23593.5
38163.6
47869.8
53869.6
57265.9
58792.8
83029.9
82338.1
80887.3
78826.9
78695.4
77193.2
79206.5
2295.62
23854
38453
47979.8
53569.4
57017.2
58610.7
83024.6
82336.9
80902.4
78637.1
78301.5
77040.5
79445.7
2293.44
25082.4
39256.5
47591.9
53374.6
56857.4
58475.6
83026.3
82338.5
80914
78651.7
78284.6
77061.5
79545.5
2294.76
25165.9
39091.2
47484.3
53269.9
56758.5
58387.5
83020.1
82334.8
80910.7
78643.3
78239.9
77070.7
79593.3
2299.28
25159.2
39065.4
47407.7
53213.8
56707.3
58337
79231.6
77988.1
75376.9
70807.5
68345.7
60418.7
55869.3
2393.11
2294.43
24773.5
37982
46620.1
52663.1
56284.8
58033.7
79182.5
77933.9
75312.2
70727.1
68264.6
60317
55761.8
2268.24
2295.79
24743.2
37910.1
46631.7
52640.2
56271.7
58018
79113.5
77862.9
75215.1
70577.3
68147.1
60160
55635.3
2269.04
2295.35
21147.7
37988.4
46656.2
52645.2
56275.7
58011.1
79043.9
77797.9
75070.6
70465.2
68014.1
59959.3
55558.2
3303.83
2299.85
21551
35252.6
46739.5
52665.6
56301.2
58011.6
78995.9
77735
74967.5
73404.6
67716.5
62859.6
57464.5
3294.8
2298.74
19356.6
34005.1
44976.5
52702.3
56355.6
58016.8
78953.9
77702.7
76860.9
73240.8
69683.6
64207.2
57514.2
2856.13
2292.04
19555.7
33524.5
45004.6
51529.2
56315.8
58018.3
78906.9
77655.6
76812.3
73114.6
70557.2
64282
57675.6
2559.28
2296.08
20007.2
33826.1
44231.4
51532.9
56229.8
57940.6
78850.3
77615.8
76763.1
74492.9
70603.5
64541.5
58333.7
2247.08
2299.87
20980.2
34255.1
43937.1
51481
56133.4
57832.1
78813.6
77573.8
76735
74501.3
70654.6
64792.8
59558.6
2386.48
2873.89
24657.2
34601.4
43922.5
51377.4
55993.2
57705.3
78762.6
77529.9
76731.2
73109.5
70643.1
64610
58623.1
2541.5
2138.71
21897.6
34106
44056.7
51222.8
55861.8
57566.8
78704.1
77456
74717.3
73218
69663.6
64312.8
57734.7
2307.8
2268.06
19463.1
33355.5
44514.1
52048.2
55708.6
57368.7
78656
77419.2
74711.1
70154.4
67687.7
59785.3
55477.3
2811.45
2295.57
20043.5
34809.4
46001.7
51884.3
55510.4
57219.5
78643.8
77400.9
74770.9
70165.8
67719.3
59831.6
55412.3
2575.46
2295.79
20931
37273.3
45836.4
51766.5
55380.9
57106.2
78645.9
77404.2
74798.9
70251.9
67824
59962.1
55523.4
2275.37
2294.81
24231.4
37122.9
45769.3
51692
55300.6
57030.6
78641.5
77404.6
74809.3
70275.1
67857.2
60044.7
55622.1
2284.3
2296.58
24364.3
37147.4
45718.8
51658.1
55256.2
56985.8
76615.9
74956.6
71426.7
65174.3
54411.3
44137.8
18898.7
2297.61
2301.75
27459.4
40294.1
48705.4
54396.9
57809.9
59443
76550.7
74881.2
71319.2
65025.1
54177.8
43884.8
18660.4
2256.02
2301.79
27148.8
40133.2
48635.6
54340.5
57776.3
59412.7
76453.7
74774.7
71175.3
64849.2
53882
43403.7
18418.9
2252.71
2301.74
22177.5
39969.8
48583.8
54291.9
57736.1
59374.8
76342.4
74671.6
70979.1
64634.9
58238.8
42972.1
18378.3
2263.11
2300.07
22039.4
35850.5
48468
54205.3
57679.2
59323.4
76250.2
74576.9
70866.9
67129.7
58120.8
46821.6
24966.2
2277.15
2270.92
18857.5
33899.8
45530.1
54111.8
57635.8
59261.2
76174.9
74481.3
72437.1
67013.7
60302.3
48676.4
25761.2
2288.31
2287.61
18899.3
32876.3
45330.9
52003.9
57532.2
59183.8
76088.5
74382.7
72408.4
66897
61260.3
48737.2
25898.4
2319.97
2300.78
18752.3
32733.2
43819.2
51833.8
57365.4
59038
76010.2
74314.7
72361.2
68274.9
61243.9
49016
26690.2
2226.21
2283.48
18883.9
32670.3
43036.1
51668.9
57196.7
58877.3
75963.9
74263.2
72326.3
68272.2
61312
49378.9
29877.1
2267.65
2282.02
19347.1
32667.2
42905.9
51517.1
57020.9
58707.7
75924.7
74240
72309.4
66857.9
61359.1
49200.8
26930.8
2268.32
2269.66
18676.5
32446.9
43374.6
51383.2
56883.6
58557.6
75872.7
74208.4
70505.4
66956.9
60250.9
48828.5
25956.3
2277.1
2272.19
18247.3
32254.1
44578.2
53157.1
56744.1
58393.4
75851.8
74182.8
70493.6
64172.8
57915.8
42832.6
20061.2
2288.43
2295.59
19590.1
34986
47369.7
53122
56623.5
58283.2
75870.7
74192.2
70597.7
64285.1
53372
42930.8
18282.3
2262.07
2302
21524.4
38937.1
47447.3
53117.1
56564.6
58207.7
75894.9
74225.1
70667.4
64392.7
53604
43300.6
18350.5
2263.67
2301.8
26447.6
39118.3
47475.4
53111.3
56527.2
58158.9
75903.7
74243.7
70716.7
64479.1
53756.7
43604.3
18535.6
2279.83
2302.03
26695.7
39209.9
47490.5
53113.1
56503.8
58128.7
76324.6
74624.1
70982.6
64647.2
53779.9
41224.1
7333.73
2300.47
6233.96
35300
46597.5
54053
58920.4
61763.9
63116.7
76236.5
74519.4
70819.2
64365.4
53383.3
40455.5
5729.35
2241.59
4695.91
34617.5
46280.5
53895.1
58826.1
61710.2
63073.3
76104.6
74369.5
70603.3
64073
53454.1
39137.6
7510.02
2261.52
2304.27
26634.2
46156.4
53791.5
58716.7
61641.6
63014.8
75948.8
74216.2
70383.7
63846.6
55394.4
38240.5
8792.92
2274.25
2299.45
26311.6
40749.9
53605.2
58566.1
61533.5
62931.6
75811
74086.5
70297.5
65134
54956
40625.9
17916.3
2282.77
2295.11
21724.8
37919.2
49775.1
58427.8
61435.3
62826.7
75692.2
73975.7
70995
64887.9
56269.4
41727
18509.5
2343.16
2298.34
21495.4
36238.5
49345.7
55579.4
61309.2
62698.7
75561.4
73828.3
70891.9
64706.5
56798.6
41604.1
19474.4
2369.1
3154.65
20516.5
35517
47089.5
55228.4
61080.3
62497.2
75454.6
73717.2
70806.8
65583.3
56645.7
41522.5
18325.4
2299.99
2302
19062.3
34731.7
45743.1
54932.7
60824.4
62275.7
75384.7
73646.4
70755.1
65541.3
56683.1
41808.3
17674.3
2286.85
2294.18
17253.2
34212
45420.6
54699.5
60581.7
62046.4
75352.8
73627.6
70709.3
64592
56830
42283.6
22681.9
2308.47
2341.9
18769.2
34331.7
46223.1
54553.1
60413.6
61866.9
75314
73581.5
69757.6
64707.5
56114.6
41938.5
18851
2298.71
2301.98
19943.2
34812.5
48149
57076.5
60237.9
61694.3
75323.3
73573.6
69705.9
63133.1
54626.3
38082.7
17405.6
2293.53
2298.47
22302.1
39095
52000.2
57090.1
60155.5
61597.8
75378.8
73626.9
69828.2
63262.6
52603.2
38075.1
7950.97
2270.69
2308.8
25508.6
44596.4
52225.7
57176.3
60144.5
61545.8
75434
73700.7
69971.9
63502.3
52507.8
39795
5582.72
2251.94
6079.4
33464.6
44929.1
52360.5
57248.8
60144.6
61518.6
75463.7
73746.7
70073.9
63718.7
52778.5
40552.8
5828.41
2253.44
5220.49
33880.4
45060.6
52443.9
57291.6
60142.9
61502
78570.3
77321.2
74687.4
70413
61594.2
51487.7
15936.9
2326.51
36712.6
53387.6
57947.8
62862.7
65931.6
67722.9
68602.2
78459.6
77180.7
74452.7
69916.7
60440.7
49905.1
2467.25
2324.39
32720.8
52150.4
57369.1
62610.4
65806.6
67659.8
68556.9
78295.6
76987.7
74174
69363.1
62143.7
47073.1
15410.8
2424.35
14965.1
40414.8
57378.4
62397.6
65667.6
67590.6
68502
78100.4
76761.4
73818.9
68866.4
60669.6
45173.7
15928.8
2280.57
2304.13
37773.7
50851.1
62196.2
65493.1
67493.9
68426.1
77922.5
76560.5
73615.8
68410.9
59503.4
44835.7
20575
2311.85
2306.39
30334.3
47222.9
57792.6
65406.7
67395.8
68326.2
77760.8
76415.3
73223.1
67824.3
59194.6
44384.9
19711
2289.26
2566.72
29690.4
44712.5
57252.6
62071.6
67297.5
68188.9
77584.8
76212.9
72943.4
67450.7
58912.6
43637.3
19102
2231.37
4998.29
27197.8
43266.8
54374.8
61622.1
67030.4
67952.2
77442
76049.9
72771.8
67474.7
58500
43154
18859.8
2295.28
2358.52
23996.9
41709.3
52498.9
61211.5
66702.6
67669.1
77342.5
75945.8
72670.5
67362.8
58398.8
43149.1
17622.5
2247.07
2265.25
21426.1
40762.5
51956
60848.2
66373.6
67366.5
77309.3
75925.7
72636.9
67139.7
58617.4
43884.6
23827.8
12560.5
2297.13
23238.9
41009.6
52979.4
60621.8
66133.2
67130.4
77286
75884.2
72836.8
67404.3
58692.7
44232.6
20714.4
2292.05
4617.9
25792.9
42018.4
55411.6
63564.1
65837.9
66892.4
77324.5
75939.8
72900
67808
58991.2
43647.1
19412.3
2282
2305.44
29754.2
47883.3
59950.4
63543.9
65742.3
66765.5
77414.5
76065.7
73161.7
68215.1
60722.2
44843
14484.5
2318.32
14304.3
36776.4
55073.3
60280.2
63696.4
65737.1
66706.2
77500.9
76185.3
73380.5
68749.2
59178.2
48594.2
2566.33
2320.59
31074
49805.6
55431.8
60577
63833.1
65751.9
66682
77552.5
76267
73550.9
69172.2
60137.3
49869.5
13677.2
2319.81
34419.6
51099.3
55787.8
60776.9
63913.5
65762.4
66670
82836
82400.1
81589.6
81513.1
80632.1
89115.5
127519
119098
92922.3
78789.3
74051.2
74449.8
74655.2
75007
75259.9
82710.4
82227.2
81300.9
80897.2
79232.2
87760
128350
98246.1
87549.1
77361.8
73310.4
74152.2
74530.7
74957.3
75230.6
82524.2
81986.1
80954.7
79437.4
78585.7
71634.6
73157.2
52763.3
54552.1
65309.8
72766.3
73658.2
74400.6
74922
75209.1
82297.1
81691.5
80416.8
78559.2
72983
65680.4
48885.6
14371.5
27243.7
61607.5
66979.2
73336.4
74254.7
74880
75178.3
82091.2
81434
80089.3
76105
71391.5
60867.6
37134.1
2286.41
13862.9
50346.3
62889
69476
74206.1
74837
75127.6
81904.4
81244.8
78483.5
75380.1
69149.1
57826.5
32840.6
2420.76
9586.64
47496.7
59776.3
69043.7
71144.3
74711.5
75023.8
81693.5
81000.7
78058.1
74904
67892.6
56076.5
30152.1
2237.8
10270.3
43508.3
57808.2
65840.3
70703.1
74435.4
74775.3
81515.1
80792.8
77779.1
73834.8
67140.3
54896.4
29491.7
2304.33
2298.88
38117.7
55563.9
63532.4
70214.9
74057.4
74440.4
81380.5
80642.4
77607.7
73608.2
66776.7
54169.4
27267.8
2249.45
2251.12
36441.2
54258.8
62753.9
69678.1
73629.6
74056.1
81336.3
80600.5
77566
74216.7
66959.6
54591.7
26311.1
2291.16
1583.2
37589.8
54355.4
63742.9
69226.9
73256.1
73707.5
81317.6
80581.7
79046
74474.2
68000.4
56349.7
31860.8
2287.41
2316.67
40428.5
55555.2
66268.1
71909.3
72916.6
73376.8
81380.8
80701
79260.1
77149.5
70248.7
61442.6
35149.5
2278.45
2333.53
47416.1
62680.5
70516.1
71830.6
72751
73183.3
81502
80899.1
79712.5
77941.7
76574.8
65169.8
49991.8
24637.3
41160.1
59156.3
69774.7
70967.2
71996.2
72705.8
73085.1
81613.2
81073.6
80020.3
79391.6
77362.9
84915
122739
91555
82055
73875.6
70619.2
71562.4
72159
72707.5
73040.6
81680
81189.5
80246.7
79938.5
78653.7
86153.4
123161
107738
87990.4
75488.5
71291.6
71895.2
72260.2
72715.7
73019.9
87962.4
88340.2
89083.1
92205.8
96928
102755
128710
130976
112338
96627.5
88942.3
85618.1
83410.1
82529.1
82193.5
87853.1
88189.4
88896
91940.5
96637.8
103218
135119
140943
114652
96565.7
88628.2
85507.2
83377
82533.8
82205.9
87681.2
87920.2
88652.4
90333.9
95019
98999
123798
154722
120602
95248.4
87966.8
85073.3
83383.3
82576.5
82255.3
87458.4
87619.8
88068.5
89255.8
89162.7
95685.4
116580
158755
118348
93338.4
85664.2
84703.1
83380.6
82640.8
82312
87256.4
87367.8
87647.5
86248.5
87147.5
87253.9
92142.3
143123
101824
86537
83214.1
82729.5
83463
82702.7
82345.1
87078.8
87095.2
85567.9
85619.3
84239.2
82411.4
81544.2
88499.6
92703.5
83608.1
81118.7
82496.4
81511.7
82593.1
82287.8
86856.4
86822
85215.4
85081.2
82196.4
80141.7
75280.9
50698.1
73337.4
79093.9
79371.5
80375.2
81203.2
82316.8
82046.9
86655.1
86577.9
84848.1
83220.8
81139.4
78255.7
70751.5
31921.4
9505.57
71961
76948.6
78266.3
80535
81869.5
81661.2
86488.1
86376.5
84591.1
82820.7
80473.3
77131.4
66659.8
13229.6
48424.9
68998.8
75094.8
77100.7
79787.2
81314.4
81175.7
86414.9
86311.5
84483.4
83900.9
80456
77620.9
67540.6
2466.81
29174.6
69681.8
74630.7
77395
79121.4
80813.8
80710.7
86383.2
86394.9
86444.7
84295.7
82204
79935.2
77246.6
44973.4
52866.2
73653.7
75557.5
78830.6
80689.8
80426
80287.4
86445.6
86522.3
86783.1
87722.9
86147.4
90039.2
94309.4
116926
88463.4
83428.8
81202.7
81489.8
80558.6
80168.7
80008.1
86564.9
86732.2
87293.8
88711.9
93018.8
95243.4
119223
157589
119715
91677.7
84824.5
82043.4
80647.6
80047.8
79842.4
86666.5
86940.5
87521.3
90337.6
94742.4
101154
132370
138988
110900
93618.5
85673.5
82602.1
80711.9
79997.9
79747.8
86718.1
87036.1
87655.5
90540
95033.4
100440
126724
129866
109440
93585.2
86016.8
82789.6
80745.2
79972.4
79698.5
92598.3
93332.9
94421.1
97198.7
101514
101136
105134
111128
106578
100812
96529.4
93085.7
90396.7
89071.9
88428.7
92556.7
93287.3
94473.1
97513.7
102249
102566
108846
115334
108602
101821
97093.2
93393.6
90562.7
89181.3
88512.2
92481.7
93131.7
94622.8
97272.5
101733
104651
110568
122743
111280
103938
97584
93710.2
90915.2
89386.9
88682.7
92346.2
92968.8
94390.7
97246.4
98912.4
106193
117857
134508
120831
105912
98047.6
94265
91361.6
89663.2
88889.7
92200.6
92813.5
94243.8
94896.3
99033.1
104457
117874
152473
130029
109177
98900.7
94281.4
91927.5
89946.6
89069
92038.9
92529.4
92624.4
94954.3
98075.9
103889
115708
144823
140689
111573
99948.1
95252
91385.4
89999.7
89105.7
91826.8
92257.1
92379
94727.9
97154.7
103963
114067
145125
143907
112608
100334
94795
91316.8
89767.9
88897.2
91615.5
91972.3
91991.4
92747.3
95395
101262
114901
157401
147054
111002
98727.3
93271.7
90469
89181.1
88446.2
91423.5
91741.2
91662.4
92158.9
94216.2
100165
116530
168765
140144
106738
96055
91406.2
89289.3
88424.2
87831.8
91319.2
91648.9
91459
92821
93930.6
100288
117887
173673
134214
104352
94204.4
90094
88246.8
87725.6
87230.9
91281.9
91776.2
92873.4
93149.5
95008.7
101052
119248
168570
134004
104831
93723.2
89820
88401.4
87258
86716.5
91300.2
91845.9
93091.3
95797.2
97316.8
105760
120291
154755
134037
105613
94566.5
90560.6
88132.7
86885.3
86332.5
91339.4
91932.7
93307
95827.5
100460
104786
114707
130192
115008
103076
94469.5
90517.4
87949.1
86632.8
86060.8
91348.5
92030
93146.6
96090.9
100798
101492
107975
114292
106765
99751
94264.5
90438.9
87745.8
86463.3
85874.8
91333.1
92017.7
93044.1
95675.3
100035
99741.5
104265
109860
104273
98470.5
93760
90213.7
87608.3
86356.4
85769.8
96024.9
96680.5
97431.6
98733.2
101331
101008
100829
106038
102679
100883
99224.9
97047.3
95099.4
93988.9
93350.5
96061.8
96743.3
97618.9
99236.7
102186
101994
102765
105342
103954
102187
100137
97631.7
95448.7
94208.2
93511.7
96129.4
96770.6
98047.7