/*--------------------------------*- C++ -*----------------------------------*\
| =========                 |                                                 |
| \\      /  F ield         | OpenFOAM: The Open Source CFD Toolbox           |
|  \\    /   O peration     | Version:  v2012                                 |
|   \\  /    A nd           | Website:  www.openfoam.com                      |
|    \\/     M anipulation  |                                                 |
\*---------------------------------------------------------------------------*/
FoamFile
{
    version     2.0;
    format      ascii;
    class       volScalarField;
    location    "0.021";
    object      p_rgh;
}
// * * * * * * * * * * * * * * * * * * * * * * * * * * * * * * * * * * * * * //

dimensions      [1 -1 -2 0 0 0 0];


internalField   nonuniform List<scalar> 
449343
(
105359
105486
105695
105887
105960
105670
104845
103411
101423
99096.4
96724.5
94583.1
92863.7
91674.8
91069.8
105361
105488
105697
105890
105962
105671
104845
103412
101426
99101.7
96731.1
94589.6
92869.1
91679.1
91073.6
105365
105493
105702
105895
105966
105673
104846
103413
101431
99111
96743.7
94602.1
92879.5
91687.3
91080.5
105371
105499
105709
105902
105971
105673
104845
103412
101435
99122.1
96760.8
94619.6
92893.9
91698.4
91089.7
105377
105505
105717
105909
105976
105671
104841
103409
101439
99134.5
96780.8
94640
92910.3
91710.6
91099.6
105381
105511
105723
105915
105979
105670
104838
103409
101445
99149
96801.3
94660.3
92926
91721.6
91108
105384
105514
105727
105919
105981
105670
104837
103409
101451
99161.5
96815.6
94675.7
92936.9
91728.5
91112.8
105383
105514
105727
105919
105980
105668
104831
103401
101444
99162.5
96819.3
94679.1
92938.3
91728.2
91111.7
105379
105509
105722
105914
105976
105665
104833
103404
101446
99156.3
96809.6
94668.9
92929.1
91720.1
91104
105371
105501
105713
105905
105970
105662
104829
103400
101436
99138.6
96789.2
94646.6
92910.6
91705
91090.6
105362
105491
105702
105895
105962
105658
104828
103395
101425
99118.5
96762.6
94619.4
92887.4
91685.9
91073.9
105352
105480
105691
105884
105953
105655
104827
103394
101416
99100.6
96736.7
94592.5
92864
91666.4
91056.6
105343
105471
105681
105874
105945
105652
104825
103391
101407
99084.7
96714.3
94569.4
92843.8
91649.3
91041.2
105337
105464
105673
105866
105939
105647
104821
103386
101399
99071.6
96697.7
94552.8
92829.1
91636.7
91029.8
105333
105460
105669
105862
105935
105645
104819
103383
101394
99064.3
96689
94544.1
92821.4
91630.1
91023.8
105217
105392
105701
106047
106294
106227
105534
104032
101788
99119.4
96449.1
94111.3
92284.9
91045.3
90420.9
105219
105394
105705
106051
106297
106229
105534
104033
101791
99126.6
96457.8
94118.9
92290.6
91049.5
90424.5
105224
105399
105711
106058
106304
106232
105535
104036
101799
99141.1
96475.9
94134.5
92302
91057.7
90431.1
105229
105406
105720
106068
106312
106231
105528
104026
101800
99157.3
96501.5
94157.2
92318.1
91068.9
90440
105235
105414
105730
106079
106321
106222
105519
104018
101789
99176.4
96534.2
94185.4
92337.2
91081.5
90449.5
105241
105421
105740
106091
106330
106223
105513
104017
101802
99199
96568.2
94215
92356.3
91093
90457.7
105244
105425
105746
106098
106332
106228
105514
104019
101812
99224
96606.8
94241.8
92370.4
91100.7
90462.3
105243
105425
105747
106100
106332
106226
105505
103963
101799
99224.2
96613.9
94247.6
92372.4
91100.8
90461.1
105238
105420
105741
106093
106327
106224
105510
104015
101808
99219.4
96601.1
94234.9
92362.4
91091.8
90452.9
105230
105411
105730
106081
106321
106214
105504
104009
101793
99189.2
96556.5
94201
92340.1
91075.1
90438.9
105220
105399
105715
106065
106307
106209
105506
104005
101775
99160.8
96515.9
94164
92312.8
91054.8
90421.6
105209
105386
105701
106049
106293
106213
105511
104008
101781
99135.8
96476.6
94128.6
92286
91034.2
90403.9
105200
105376
105688
106036
106282
106210
105513
104013
101774
99113.9
96445
94099.6
92263.4
91016.3
90388.2
105193
105368
105679
106026
106273
106204
105509
104006
101763
99095
96422.3
94079.3
92247.2
91003.2
90376.6
105190
105364
105675
106021
106268
106201
105507
104003
101757
99085.4
96411.2
94069.1
92238.9
90996.3
90370.5
104851
105134
105672
106380
107090
107592
107291
105617
102687
99123.9
95721.7
92938.9
90881.3
89534.4
88870.3
104853
105137
105676
106386
107097
107596
107291
105618
102693
99136.2
95734.9
92948.7
90887.5
89538.5
88873.4
104857
105142
105686
106399
107111
107605
107289
105624
102705
99165.3
95766.4
92970.3
90900.2
89546.4
88879.2
104863
105151
105699
106417
107130
107602
107265
105616
102685
99196.9
95818
93005.4
90919.3
89557.4
88887
104870
105161
105716
106440
107151
107582
107195
105538
102632
99255.8
95882.9
93049.9
90943.6
89570.1
88895.3
104876
105172
105735
106465
107183
107570
107176
105543
102658
99311.7
95963.7
93101.2
90968.5
89582.4
88902.5
104879
105178
105745
106484
107179
107584
107172
105543
102672
99351.2
96105.4
93153.4
90991.4
89590.6
88905.9
104879
105179
105747
106489
107189
107597
107197
105561
102666
99356.2
96114.4
93162.9
90995.8
89591.9
88904.8
104873
105172
105739
106478
107175
107580
107169
105540
102670
99348
96101
93146.8
90983
89580.8
88895.3
104864
105160
105724
106455
107173
107561
107169
105537
102652
99303.9
95953.4
93087.1
90950.7
89561.8
88880.5
104852
105144
105700
106425
107137
107568
107184
105527
102621
99241.8
95865
93027.2
90916.2
89539.2
88862.6
104840
105129
105678
106397
107111
107584
107247
105598
102667
99175.8
95792
92973.8
90882.5
89516.6
88844.2
104831
105116
105660
106374
107088
107581
107265
105600
102680
99136.5
95732.5
92930.6
90855.2
89497.3
88828
104824
105107
105648
106358
107070
107569
107264
105590
102662
99101.2
95694.8
92902.9
90836.3
89483.3
88816
104820
105103
105642
106350
107061
107563
107262
105586
102654
99085.9
95678.4
92889.9
90826.9
89476.1
88809.8
104132
104573
105454
106745
108311
109898
110726
108723
104285
98844.1
94205.1
90811.1
88486.6
87037.2
86344
104133
104575
105459
106754
108323
109907
110720
108726
104290
98862.7
94223.1
90821.4
88491.6
87040
86345.9
104136
104581
105471
106776
108352
109931
110722
108751
104337
98930.7
94273.3
90846.2
88502.8
87045.7
86349.5
104140
104589
105491
106814
108394
109963
110567
108770
104249
99059.9
94377.1
90890.6
88520.6
87053.9
86354.1
104144
104601
105517
106854
108452
109925
109808
108497
105088
99270.2
94516.8
90960.2
88543.9
87061.9
86358.1
104150
104615
105556
106939
108557
109144
109706
108488
105162
100559
94700.4
91043.3
88573.1
87069.5
86360.9
104152
104624
105577
106966
107903
109186
109688
108471
105160
100617
96031.1
91109.6
88590.4
87073.2
86359.7
104152
104628
105588
106978
107909
109211
109719
108386
105171
100645
96029
91121.5
88607.7
87079.4
86357
104145
104618
105572
106960
107899
109195
109693
108459
105167
100633
96027.1
91103.5
88581.8
87061.9
86346.8
104136
104602
105543
106927
108547
109148
109684
108466
105145
100593
94694.4
91029.6
88552.6
87044.3
86333.3
104124
104581
105499
106837
108437
109911
109787
108488
105129
99260.2
94501.8
90936.3
88511.7
87023.9
86316.9
104113
104563
105466
106791
108372
109944
110547
108753
104235
99041.2
94350.4
90854.4
88475.7
87002.6
86299.8
104104
104550
105441
106748
108326
109905
110698
108727
104313
98899.8
94234.6
90798.5
88446.8
86983.6
86284.2
104098
104540
105425
106721
108292
109876
110689
108694
104255
98822.4
94175.3
90765
88427.3
86969.8
86272.6
104095
104536
105418
106711
108278
109864
110693
108688
104247
98799.6
94152.8
90750.2
88417.9
86962.8
86266.5
102859
103473
104750
106784
109626
113215
116964
114185
106686
97508.3
91187.8
87323.3
84907.3
83490.6
82842.6
102858
103473
104754
106794
109644
113235
116960
114193
106708
97541.1
91207.2
87328.5
84907.7
83490.3
82842.1
102855
103474
104764
106821
109700
113300
116984
114221
106797
97631.7
91261.3
87342.3
84909.6
83489.7
82841
102852
103478
104786
106900
109881
113453
114697
114329
108451
98119.4
91462.6
87387
84914.4
83491
82838.8
102848
103480
104816
106969
109969
111966
114677
114277
108563
100480
91678.6
87437.2
84917.7
83481.1
82832.4
102848
103498
104884
107183
109115
112160
114708
114179
108557
100790
93968.2
87571.5
84913.3
83481.7
82825.6
102841
103491
104889
106598
109195
112273
113799
113539
108970
101864
94215
89453.5
84856.5
83452.5
82810
102842
103502
104956
106613
109247
112320
113832
113543
109029
101946
94319.3
89530.3
84979.3
83452.6
82809.7
102833
103485
104883
106592
109227
112306
113809
113548
109002
101939
94292.9
89511
84847.6
83439.2
82793.2
102830
103481
104868
107169
109108
112179
113858
113538
108957
100897
94082.3
87559.5
84889.7
83448.6
82789.2
102823
103457
104795
106950
109952
112009
114650
114163
108499
100643
91672.8
87413.2
84878.5
83433
82778.1
102819
103445
104755
106872
109855
113431
114662
114314
108562
98110
91437.2
87343.8
84856.4
83421.8
82766.1
102815
103435
104727
106788
109670
113271
116956
114234
106769
97597.5
91215.4
87281.8
84836.3
83407.1
82753.4
102813
103429
104712
106755
109607
113199
116924
114169
106668
97492.5
91147
87255.1
84822.6
83396.4
82743.6
102812
103427
104706
106742
109587
113176
116925
114152
106641
97453.4
91120.9
87243.5
84816.1
83391
82738.5
100782
101520
103117
105859
110219
117091
122640
127900
114038
92771.6
85467
81937.5
79902.7
78837.6
78389.9
100775
101514
103114
105865
110243
117116
122649
127896
114029
92773.3
85464.4
81924.8
79893.9
78832.8
78386.6
100761
101502
103108
105867
110277
117190
122668
127895
114009
92759
85438.1
81885
79872.2
78821.8
78379.1
100744
101493
103120
105943
110704
115042
122791
127985
114013
97324.8
85551
81792.8
79845
78807.4
78367
100717
101464
103101
106028
109484
115346
123083
125606
115462
98077.3
88880.6
81707.3
79737.4
78765.2
78345.4
100702
101446
103168
105608
109603
114407
121340
124566
115535
100508
89132.7
84172.1
79646.5
78711.2
78319.5
100676
101411
103161
105656
109754
114467
120449
124611
116164
101624
90965.3
84274.6
79558.5
78653.3
78287.8
100664
101387
103151
105720
109105
113959
120487
124633
116236
101785
91040.2
84324
81509.2
78609.8
78276.1
100666
101401
103151
105684
109094
114441
120484
124630
116235
101792
91036.5
84277.3
79542.7
78632
78263.1
100679
101425
103150
105584
109712
114464
120422
124618
116181
101655
90994.3
84252.1
79623.7
78669
78270.2
100686
101435
103076
106005
109474
115394
121222
125545
115551
100379
89073
81684.2
79688
78697.6
78269.8
100701
101452
103081
105910
110675
115071
122813
127997
114061
97538.8
85529.2
81739.1
79764.2
78715.7
78266.8
100710
101453
103063
105825
110240
117158
122655
127867
113997
92719.1
85379.9
81804.2
79773.1
78705.9
78257.4
100717
101458
103061
105816
110197
117075
122602
127851
113983
92712.2
85385.3
81825.4
79777.1
78703.2
78250.3
100721
101461
103061
105807
110171
117046
122598
127854
113987
92698.6
85376.5
81828.8
79777.5
78700
78246.1
97680.7
98394.1
99990.8
102910
107897
114760
131292
161060
117858
84980.3
75068.5
73929
73319.4
73168.3
73147.7
97665.6
98378.6
99974.8
102893
107890
114756
131271
161033
117706
84889.5
75006.3
73883.3
73301.4
73160.4
73142.9
97633.2
98340
99927.3
102822
107784
114729
131191
160978
117621
84822
74882.7
73798.6
73261.5
73140.2
73131.8
97588.8
98291.8
99872.7
102615
107157
115098
131187
160849
117345
84875.2
78208.1
73470.5
73184
73104.3
73113
97522.2
98200.3
99691.1
102677
107192
114218
128238
160706
118253
88821.9
77952.3
75650.2
72957.8
73039.4
73079.9
97456.5
98061.9
100141
102742
106936
114205
126832
155695
123259
91019.9
80325.5
75601.3
74643.8
72946
73043
97415.2
98016.1
100135
102741
106970
113773
126744
155648
123698
91463.8
81814.5
77216.4
74621.5
72938.4
73022.7
97381.4
97982
100187
102761
106969
113750
126712
155666
124214
91915.8
82016.2
77290.4
74651.6
72944
72988.1
97402.8
98004.7
100136
102776
106987
113752
126712
155654
124111
91911.6
82035.1
77293.6
74602.1
72907.1
72987.7
97427.9
98035.1
100134
102711
106977
113769
126746
155644
123692
91514
81852.1
77224.1
74613.5
72880
72970
97479.8
98162.7
99658.3
102655
107181
114225
126839
155714
123474
91170.5
80469.8
75609.8
72882.3
72940.9
72970.5
97532.2
98237.8
99822.7
102576
107024
115010
128210
160740
117645
89191.2
78133.8
73398.2
73073.6
72971.3
72969.5
97564.7
98275.1
99868.8
102768
107736
114685
131151
160862
117517
84822.6
74801.7
73684.8
73117.6
72977.4
72959.6
97588.1
98303.9
99905.2
102830
107833
114713
131194
160947
117582
84810.5
74898.8
73742.7
73136.1
72977.5
72951
97598.7
98315.1
99917.4
102843
107836
114701
131223
160982
117698
84843.5
74942.5
73776.1
73143
72975
72945.7
93492.7
93923.2
94885.9
96666.5
99606.2
106339
113877
111778
26542.5
54646.9
60198.2
63517
65626.9
66962.2
67576.4
93470.1
93898
94856.2
96626.1
99573.8
106304
113850
111696
24232.4
54400
60078.2
63471.1
65616.9
66958.6
67575.4
93420.7
93836.3
94783.2
96554.9
99460.7
106204
113759
111616
24085
54300.1
59977.7
63456.9
65609.3
66954.1
67575
93348.7
93735.5
94656.8
96264.6
100717
105798
113513
111513
24143.1
54381.1
61339.1
63539.9
65615
66946.6
67576.4
93246.5
93600.6
94436.1
97378.7
100473
106187
114250
111344
24226.7
57677.3
62899
64837.1
65716.3
66969.7
67577.6
93128.7
93461.5
95538.8
97264.5
100929
106407
114048
111015
24361
58455.9
64116.1
65100.2
66798.7
67055.1
67583.6
93082
93407.9
95514.5
97189.4
101170
106343
113929
110792
28079.1
59661.3
64751.1
66199.9
66847.5
67107.8
67601.4
93053.7
93367.1
95479.8
97807.3
101168
106318
113877
110616
33236.6
60987
65276.2
66862.8
66947.1
67144.3
67582.4
93065.8
93394.8
95476.4
97798.2
101171
106326
113888
110659
34226.1
61273.8
65335.5
66871.5
66881.6
67062.1
67548.1
93090.3
93428.9
95511.8
97193.6
101170
106359
113948
110804
27712.1
59843.6
64835.4
66184.4
66765.3
66956
67474
93188.2
93546.2
94387.5
97293.3
100939
106416
114059
110989
26338.2
58777.5
64173.5
64895
65601.4
66821.9
67416
93270.6
93663
94597.9
96214.5
100590
105471
113192
111342
25029.9
56407.9
61260.9
63428.5
65448.5
66751.2
67367.6
93326.1
93746.2
94702.7
96490.5
99404.6
105949
113551
111450
23784
54267.2
59875.8
63285.6
65399.4
66719.4
67327.9
93363.4
93795.9
94762.8
96542.7
99502.8
106210
113726
111541
24086.5
54285.7
59929.2
63271.5
65380.8
66698
67302.8
93379.9
93814.7
94786
96578.4
99530
106262
113787
111592
24188.1
54396
60023.1
63299.9
65376.3
66688.3
67290.8
88490.6
88391.2
88170.2
87841.6
87791.4
91827.1
95627.6
108884
6193.7
33300.5
46596.5
53771.9
58492.1
61269
62521.9
88465.3
88362.9
88139.2
87805.7
87771.2
91788
95593.9
108699
2228.53
33230.7
46522.2
53775.4
58503.6
61276.5
62529.7
88414.2
88303.6
88074.7
87776.4
87724.5
91686.9
95499.6
108606
2324.95
33209.5
46564.9
53845.8
58548.3
61307.9
62552.4
88343.4
88205.4
87977.4
87825.5
90479.3
91624.5
95287.8
108480
2239.6
33393.5
46674.1
54155.3
58656.6
61370.1
62596
88253.6
88096.2
87923.6
89791.7
90497.2
93462.9
96359
108484
5620.97
33254.9
47404.3
54897.4
58871.2
61494
62662.9
88156.4
88069
89471
89713.6
91728.1
94254.4
96235.7
108096
3105.23
34226.7
48137.1
55128.4
59549.1
61624.2
62736.1
88124
88049.5
89376.9
89690.1
92371
94188.7
96181.2
108023
21898.5
35874.8
48894.3
55731.5
59657.4
61683
62767.6
88098.1
88017.8
89328.6
90669.9
92348.5
94189.1
96198.8
107975
4608.09
37759.7
49619.5
56175.7
59709
61705
62745.6
88099.2
88028.1
89322
90665.3
92364.5
94218.4
96241.5
108033
26871.2
38783.9
49727.5
56184.8
59656.7
61612.1
62685.6
88104.4
88025.2
89359.2
89716.5
92394.3
94251.7
96266.2
108059
16746.5
36230.6
49005.3
55704.2
59538.1
61476.3
62571.5
88171.4
88021.4
87870.8
89697.8
91782.7
94320.4
96300.9
108108
2309.27
34200
48146.7
54904
58683.7
61268.5
62421.5
88232.9
88101.7
87887.4
87763
90489.6
91754.6
95456.7
108481
2750.77
33496.8
46926.6
53956.3
58398.8
61079.1
62290.2
88280.5
88176.1
87959.8
87679.7
87652.4
91608.6
95349
108437
2475.42
33325.9
46398.6
53585.6
58238.1
60967
62197
88315.5
88219.4
88009.6
87697.7
87683.5
91685.9
95481.5
108549
2455.25
33208
46310.4
53488.6
58163.7
60904.7
62143
88332.5
88239.5
88031.8
87723.8
87694.8
91749.9
95549.5
108618
3189.43
33147.3
46356.3
53464.7
58135.2
60881.2
62119.2
83381
82688
81246.3
78944.3
78527.1
77283.7
79762.2
2174.73
25501.9
39570.9
47989.3
53862.7
57390.1
59036.9
83356.6
82660.8
81218.1
78917.9
78491.6
77244.5
79724.8
2205.61
25489.5
39558.1
48029.4
53881.4
57403.8
59049
83313.8
82618
81165
78865.6
78479.5
77207.9
79638.7
2212.63
25282.7
39658.5
48099.3
53935.6
57448.5
59080.4
83267.5
82567.2
81101.1
79000.7
78745.3
77129.9
79470.5
2233.81
25380.2
38506.9
48407.2
54054.2
57531.2
59134.9
83227.9
82528.3
81203.7
81058.7
79282.7
79240.3
80173.4
2252.82
23159.1
38110.1
47987.3
54259.7
57672.6
59212.7
83190.6
82626.9
82639.4
81302.9
80646
80230.6
80141.9
2267.83
23657.5
38205.7
48207.6
54078.4
57730.4
59294
83176.5
82630.3
82588.1
81402.1
81470.7
80317.5
80218.3
2249.84
25002.7
38874.3
48185.3
54217.3
57736.3
59292.4
83150.2
82614.4
82570.6
82283.7
81609.7
80441
80430.3
36157.8
27270.6
39558
48313.7
54235.6
57717.9
59244.7
83140.3
82603
82555.8
82301.9
81647.1
80534.4
80631.5
2295.09
26688.4
39671.6
48326.6
54176.6
57614.1
59165.8
83115.2
82564.5
82564.1
81411.8
81549.3
80486.5
80528.6
2630.64
25387.2
39042.6
48138.8
54039.5
57492.9
59045
83109.5
82420.5
81131.1
81025.8
80655
80346
80320.7
2314.81
23643.8
38213.9
47923.8
53928.5
57324.7
58851.7
83108.4
82416.6
80965.8
78905.3
78769
77266.7
79277.7
2353.61
23925.1
38526.5
48058.2
53647.9
57095.6
58689.2
83122.7
82435
81000.5
78735.2
78394.7
77133.7
79536.4
2358.04
25175.6
39354.6
47690
53472.7
56955.5
58573.7
83144
82456.2
81031.7
78769.4
78397.4
77174.3
79655.9
2370.09
25278.7
39208.9
47602
53387.6
56876.2
58505.2
83157.4
82472.1
81048.1
78780.6
78372.3
77203.1
79723.3
2405.14
25291.6
39202.7
47545
53351.1
56844.6
58474.4
79094.3
77850.8
75239.6
70670.2
68203.4
60276.5
55724.6
2327.26
2173.31
24636.2
37844.7
46482.8
52525.7
56147.5
57896.3
79064.8
77816.2
75194.5
70609.4
68141.9
60194.3
55636.7
2268.07
2199.58
24625.5
37792.4
46514
52522.5
56154
57900.3
79015.4
77764.8
75117
70479.2
68044.1
60057
55529.8
2268.92
2213.78
21044.7
37890.3
46558.1
52547.1
56177.6
57913
78965.4
77719.4
74992.1
70386.7
67930.7
59875.9
55472.4
3216.96
2243.12
21467.6
35169.2
46661
52587.1
56222.7
57933.2
78937
77676.1
74908.6
73340.8
67652.8
62793.4
57397.1
3227.6
2271.54
19289.1
33938.9
44912.7
52643.4
56296.7
57958
78914.7
77663.5
76816.7
73196.7
69637
64159.4
57466.4
2819.14
2280.36
19507.8
33476.7
44960.5
51485
56276.6
57979.1
78887.3
77636
76787.7
73090.1
70529
64253.7
57647.4
2543.15
2279.05
19979
33797.9
44204.4
51508.3
56210.2
57920.9
78850.3
77615.8
76758.2
74485.5
70594.9
64532.9
58325.1
2242.14
2295.41
20971.6
34246.5
43928.5
51476.1
56133.4
57832.1
78833.2
77593.4
76749.7
74513.5
70665.6
64803.8
59569.6
2396.05
2879.88
24668.3
34612.4
43933.5
51392.1
56012.8
57724.9
78801.9
77569.2
76765.5
73143.9
70673.8
64640.6
58653.8
2558.55
2139.03
21928.2
34136.7
44088.6
51257.1
55901.1
57606
78762.9
77514.9
74776.2
73272
69715.1
64363.1
57784.9
2310.02
2270.67
19513.4
33405.8
44568
52107
55767.4
57427.6
78734.5
77497.7
74789.6
70232.9
67761.3
59858.9
55548.4
2874.72
2333.68
20114.6
34882.9
46080.1
51962.8
55588.9
57298
78741.9
77499
74869
70263.9
67812.5
59924.8
55503.1
2624.6
2367.52
21024.2
37371.4
45934.5
51864.6
55479
57204.3
78763.6
77521.9
74916.6
70369.6
67936.8
60074.9
55633.7
2275.65
2379.77
24349.1
37240.6
45887.1
51809.7
55418.3
57148.3
78778.8
77541.9
74946.7
70412.4
67989.6
60177.1
55752.1
2284.53
2406.57
24501.6
37284.7
45856.1
51795.4
55393.5
57123.2
76478.6
74819.2
71289.4
65037
54274
43995.5
18754
2253.64
2177.44
27322.1
40156.8
48568.1
54259.6
57672.5
59305.7
76432.9
74763.4
71201.5
64907.3
54060.1
43762.2
18535.3
2255.94
2202.68
27031.1
40015.4
48517.8
54222.8
57658.6
59295
76355.6
74676.6
71077.2
64751.1
53783.9
43300.7
18313.4
2252.62
2218.56
22074.5
39871.7
48485.7
54193.8
57638
59276.7
76263.9
74593.2
70900.6
64556.4
58155.4
42888.7
18292.4
2263
2242.99
21956
35767.1
48389.6
54126.8
57600.7
59245
76191.4
74518.1
70808
67066
58057
46755.4
24898.7
2277.09
2264.07
18790.1
33833.6
45466.4
54052.9
57577
59202.3
76135.7
74442.1
72393
66969.6
60255.7
48628.6
25713.3
2287.38
2277.74
18851.5
32828.4
45286.8
51959.7
57493
59144.6
76068.8
74363
72383.9
66872.5
61232.1
48709
25870.2
2309.5
2280.58
18724.1
32705
43792.2
51809.3
57345.8
59018.4
76010.2
74314.7
72356.3
68267.6
61235.3
49007.5
26681.6
2226.1
2279.83
18875.3
32661.7
43027.5
51664
57196.7
58877.3
75983.5
74282.8
72341.1
68284.4
61323
49390
29888.2
2269.28
2283.35
19358.1
32678.2
42917
51531.8
57040.6
58727.3
75964
74279.3
72343.8
66892.3
61389.7
49231.5
26961.5
2268.45
2273.32
18707.2
32477.6
43406.5
51417.6
56922.8
58596.8
75931.6
74267.2
70564.3
67010.8
60302.4
48878.8
26006.6
2277.28
2274.07
18297.6
32304.4
44632.2
53216
56802.9
58452.3
75930.2
74261.3
70572.1
64251.2
57989.4
42906.2
20132.3
2289.92
2328.55
19661.2
35059.5
47448.1
53200.5
56702
58361.6
75968.8
74290.3
70695.8
64383.2
53470.1
43024
18373.1
2262.19
2376.01
21617.6
39035.2
47545.4
53215.2
56662.7
58305.8
76012.6
74342.8
70785.1
64510.4
53721.7
43413.4
18460.8
2263.77
2394.51
26565.3
39236
47593.1
53229
56644.9
58276.6
76041.1
74381
70854
64616.4
53894
43736.8
18665.6
2279.9
2414.1
26833
39347.3
47627.8
53250.4
56641.1
58266
76187.3
74486.8
70845.3
64509.8
53642.6
41086.8
7191.49
2268.55
6096.64
35162.6
46460.1
53915.7
58783
61626.5
62979.3
76118.8
74401.7
70701.5
64247.7
53265.5
40337.8
5606.73
2241.49
4578.23
34499.7
46162.8
53777.4
58708.3
61592.4
62955.6
76006.5
74271.4
70505.2
63974.9
53356
39034.6
7407.02
2261.36
2214.87
26531.2
46058.3
53693.4
58618.6
61543.5
62916.7
75870.3
74137.7
70305.3
63768.1
55311
38157.1
8709.54
2273.72
2236.96
26228.3
40666.5
53526.7
58487.7
61455.1
62853.1
75752.2
74027.7
70238.6
65070.2
54892.3
40559.7
17848.9
2282.49
2280.61
21657.3
37853
49711.3
58368.9
61376.4
62767.9
75652.9
73936.5
70950.9
64843.8
56222.8
41679.2
18461.7
2311.85
2278.59
21447.6
36190.7
49301.5
55535.3
61270
62659.5
75541.7
73808.6
70867.4
64682
56770.4
41575.9
19446.2
2354.67
3126.47
20488.3
35488.8
47062.5
55203.8
61060.7
62477.6
75454.6
73717.2
70801.9
65576
56637.1
41514
18316.8
2298.46
2300.17
19053.7
34723.1
45734.5
54927.8
60824.4
62275.7
75404.4
73666
70769.8
65553.5
56694.2
41819.3
17685.4
2289.09
2296.61
17264.3
34223.1
45431.7
54714.2
60601.4
62066
75392
73666.8
70743.7
64626.3
56860.7
42314.3
22712.6
2337.2
2370.29
18799.9
34362.4
46254.9
54587.4
60452.8
61906.1
75372.8
73640.4
69816.5
64761.5
56166.1
41988.7
18901.3
2304.65
2330.01
19993.5
34862.8
48203
57135.4
60296.7
61753.2
75401.8
73652.1
69784.4
63211.6
54699.9
38156.3
17476.7
2295.34
2346.17
22373.3
39168.6
52078.7
57168.5
60234
61676.2
75476.9
73725
69926.3
63360.7
52701.3
38168.3
8044.17
2270.85
2392.94
25601.8
44694.5
52323.8
57274.4
60242.6
61643.9
75551.7
73818.4
70089.6
63620
52625.5
39912.7
5695.54
2252.08
6197.1
33582.3
45046.8
52478.3
57366.5
60262.3
61636.3
75601
73884.1
70211.3
63856
52915.8
40690.1
5960.84
2254.07
5357.8
34017.7
45198
52581.2
57428.9
60280.2
61639.4
78433
77183.9
74550
70275.6
61456.8
51350.4
15799.6
2233.98
36575.2
53250.3
57810.4
62725.4
65794.3
67585.6
68464.9
78341.9
77062.9
74335
69798.9
60323
49787.3
2353.96
2287.24
32603.1
52032.7
57251.4
62492.6
65688.8
67542.1
68439.2
78197.5
76889.6
74075.9
69265
62045.6
46970.1
15307.7
2423.97
14862.1
40311.8
57280.3
62299.5
65569.5
67492.5
68403.9
78021.9
76682.9
73740.4
68787.9
60586.2
45090.3
15845.4
2280.27
2234.54
37690.3
50767.7
62117.7
65414.7
67415.4
68347.6
77863.7
76501.7
73557
68347.2
59439.7
44769.4
20507.6
2263.18
2259.82
30266.9
47156.7
57728.8
65347.9
67336.9
68267.3
77721.5
76376.1
73178.9
67780.1
59148
44337
19663.1
2280.08
2528.44
29642.5
44664.7
57208.5
62027.4
67258.2
68149.7
77565.2
76193.2
72918.9
67426.2
58884.4
43609.1
19073.8
2231.12
4970.09
27169.6
43238.6
54347.8
61597.5
67010.8
67932.6
77442
76049.9
72766.9
67467.3
58491.4
43145.4
18851.2
2294.73
2357.64
23988.3
41700.7
52490.3
61206.6
66702.6
67669.1
77362.2
75965.4
72685.3
67375
58409.8
43160.2
17633.5
2247.98
2265.99
21437.1
40773.6
51967
60862.9
66393.2
67386.2
77348.6
75964.9
72671.2
67174
58648
43915.3
23858.4
12591.2
2326.84
23269.6
41040.3
53011.3
60656.1
66172.4
67169.7
77344.9
75943
72895.7
67458.3
58744.2
44282.9
20764.6
2313.06
4668.18
25843.1
42068.6
55465.6
63622.9
65896.8
66951.3
77402.9
76018.3
72978.5
67886.5
59064.7
43720.7
19483.4
2295.07
2349.47
29825.4
47956.9
60028.9
63622.3
65820.8
66844
77512.6
76163.8
73259.8
68313.2
60820.3
44936.2
14577.7
2318.79
14397.5
36869.6
55171.4
60378.3
63794.5
65835.2
66804.3
77618.7
76303
73498.2
68867
59295.9
48711.9
2681.35
2361.29
31191.7
49923.3
55549.5
60694.8
63950.8
65869.6
66799.8
77689.8
76404.4
73688.2
69309.6
60274.6
50006.9
13814.4
2395.56
34556.9
51236.6
55925.1
60914.2
64050.9
65899.7
66807.3
82698.7
82262.8
81452.3
81375.7
80494.8
88978.2
127381
118960
92784.9
78651.9
73913.9
74312.4
74517.8
74869.7
75122.6
82592.7
82109.4
81183.2
80779.5
79114.5
87642.3
128232
98128.4
87431.4
77244.1
73192.7
74034.5
74412.9
74839.6
75112.9
82426.1
81888
80856.6
79339.3
78487.6
71531.5
73054.2
52660.3
54449.1
65206.8
72668.2
73560.1
74302.5
74823.9
75111
82218.6
81613
80338.3
78480.7
72899.6
65597
48802.2
14285.6
27157.9
61524.1
66895.8
73258
74176.3
74801.5
75099.8
82032.4
81375.1
80030.4
76041.3
71327.8
60801.4
37066.6
2249.64
13795.5
50278.8
62822.8
69412.3
74147.3
74778.2
75068.8
81865.2
81205.5
78439.4
75336
69102.5
57778.6
32792.8
2385.05
9538.81
47448.9
59728.5
68999.5
71100.2
74672.3
74984.6
81673.9
80981.1
78033.5
74879.5
67864.4
56048.3
30123.9
2237.52
10242.1
43480.1
57780
65813.3
70678.5
74415.7
74755.7
81515.1
80792.8
77774.2
73827.5
67131.7
54887.8
29483.1
2302.26
2292.95
38109.2
55555.4
63523.8
70210
74057.4
74440.4
81400.2
80662
77622.4
73620.5
66787.7
54180.4
27278.8
2250.32
2252.53
36452.2
54269.9
62764.9
69692.8
73649.3
74075.7
81375.5
80639.7
77600.3
74251
66990.3
54622.4
26341.8
2293.79
1613.83
37620.4
54386
63774.8
69261.2
73295.3
73746.7
81376.4
80640.6
79104.9
74528.2
68051.9
56400
31911.1
2301.22
2354.71
40478.7
55605.4
66322
71968.2
72975.4
73435.7
81459.3
80779.4
79338.6
77228
70322.3
61516.2
35220.6
2333.04
2386.15
47487.2
62754.1
70594.6
71909.1
72829.5
73261.8
81600.1
80997.2
79810.6
78039.8
76672.9
65263
50085
24730.5
41253.3
59249.5
69872.8
71065.3
72094.3
72803.9
73183.2
81730.9
81191.3
80138
79509.3
77480.6
85032.7
122856
91672.7
82172.7
73993.3
70736.9
71680.2
72276.7
72825.2
73158.3
81817.3
81326.8
80384
80075.9
78791.1
86290.7
123298
107875
88127.7
75625.9
71429
72032.6
72397.5
72853.1
73157.3
87825.1
88202.9
88945.8
92068.5
96790.7
102618
128572
130839
112201
96490.1
88804.9
85480.7
83272.8
82391.8
82056.2
87735.4
88071.7
88778.3
91822.8
96520.1
103101
135001
140826
114535
96448
88510.5
85389.5
83259.3
82416.1
82088.2
87583.1
87822.1
88554.3
90235.8
94920.9
98896
123695
154619
120499
95145.4
87868.7
84975.2
83285.2
82478.4
82157.2
87380
87541.3
87990.1
89177.3
89079.3
95602.1
116497
158670
118263
93255
85580.8
84624.6
83302.1
82562.3
82233.5
87197.6
87308.9
87588.7
86184.7
87083.7
87187.7
92074.9
143056
101757
86469.5
83147.9
82665.7
83404.2
82643.8
82286.3
87039.6
87056
85523.8
85575.1
84192.7
82363.5
81496.3
88451.8
92655.6
83560.2
81070.9
82452.3
81467.6
82553.9
82248.5
86836.8
86802.4
85190.9
85056.7
82168.2
80113.5
75252.7
50669.9
73309.2
79065.7
79343.3
80348.2
81178.6
82297.2
82027.3
86655.1
86577.9
84843.2
83213.4
81130.8
78247.1
70742.9
31912.8
9497.06
71952.4
76940
78257.7
80530.1
81869.5
81661.2
86507.7
86396.1
84605.8
82833
80484.4
77142.5
66670.8
13240.7
48436
69009.9
75105.8
77111.8
79801.9
81334
81195.3
86454.1
86350.7
84517.7
83935.2
80486.7
77651.5
67571.3
2491.37
29205.3
69712.4
74661.3
77426.9
79155.8
80853
80749.9
86442.1
86453.7
86503.6
84349.7
82255.5
79985.5
77296.9
45023.6
52916.5
73704
75607.8
78884.6
80748.6
80484.9
80346.2
86524.1
86600.7
86861.6
87801.4
86221
90112.7
94380.5
116996
88533.3
83499.9
81276.3
81568.3
80637.1
80247.2
80086.6
86663
86830.3
87391.9
88810
93116.9
95336.5
119316
157682
119809
91770.9
84922.6
82141.5
80745.7
80145.9
79940.5
86784.2
87058.2
87639
90455.3
94860.1
101272
132488
139106
111018
93736.2
85791.2
82719.8
80829.6
80115.7
79865.5
86855.4
87173.4
87792.9
90677.3
95170.7
100577
126862
130004
109577
93722.5
86154.2
82926.9
80882.5
80109.8
79835.9
92461
93195.5
94283.7
97061.4
101377
100999
104997
110990
106441
100675
96392.1
92948.4
90259.4
88934.6
88291.4
92439
93169.6
94355.3
97395.9
102131
102448
108728
115216
108484
101703
96975.5
93275.9
90445
89063.6
88394.4
92383.6
93033.6
94524.7
97174.4
101635
104548
110465
122640
111177
103835
97485.9
93612.1
90817.1
89288.8
88584.6
92267.7
92890.4
94312.2
97167.9
98829
106109
117774
134422
120745
105828
97964.3
94186.5
91283.1
89584.7
88811.2
92141.7
92754.7
94185
94832.6
98969.3
104390
117807
152406
129962
109109
98834.5
94217.7
91868.6
89887.7
89010.1
91999.6
92490.2
92580.2
94910.2
98029.3
103841
115660
144775
140641
111525
99900.3
95207.8
91341.2
89960.5
89066.4
91807.2
92237.4
92354.5
94703.4
97126.5
103935
114039
145097
143878
112580
100306
94768
91292.3
89748.3
88877.6
91615.5
91972.3
91986.5
92740
95386.5
101254
114892
157392
147046
110993
98718.7
93263.1
90464.1
89181.1
88446.2
91443.1
91760.8
91677.1
92171.1
94227.2
100176
116541
168776
140155
106749
96066.1
91417.3
89304
88443.8
87851.4
91358.4
91688.2
91493.4
92855.3
93961.3
100319
117918
173704
134245
104383
94235
90125.8
88281.2
87764.8
87270.1
91340.8
91835.1
92932.3
93203.5
95060.2
101102
119299
168621
134054
104881
93773.5
89874
88460.3
87316.9
86775.3
91378.7
91924.4
93169.8
95875.7
97390.4
105833
120362
154825
134106
105684
94640.1
90639.1
88211.2
86963.8
86411
91437.5
92030.8
93405.1
95925.6
100558
104880
114800
130285
115101
103169
94567.6
90615.5
88047.2
86730.9
86158.9
91466.3
92147.7
93264.3
96208.6
100916
101610
108093
114410
106883
99868.8
94382.2
90556.6
87863.5
86581
85992.6
91470.4
92155
93181.5
95812.7
100172
99878.8
104402
109997
104411
98607.8
93897.3
90351.1
87745.7
86493.7
85907.2
95887.6
96543.2
97294.3
98595.9
101194
100871
100692
105900
102542
100745
99087.6
96910
94962.1
93851.5
93213.2
95944.1
96625.6
97501.2
99118.9
102069
101876
102647
105225
103837
102069
100019
97513.9
95331
94090.5
93393.9
96031.3
96672.5
97949.6
99835.1
102765
104205
107714
113244
109118
104561
101482