/*--------------------------------*- C++ -*----------------------------------*\
| =========                 |                                                 |
| \\      /  F ield         | OpenFOAM: The Open Source CFD Toolbox           |
|  \\    /   O peration     | Version:  v2012                                 |
|   \\  /    A nd           | Website:  www.openfoam.com                      |
|    \\/     M anipulation  |                                                 |
\*---------------------------------------------------------------------------*/
FoamFile
{
    version     2.0;
    format      ascii;
    class       volScalarField;
    location    "0.012";
    object      p;
}
// * * * * * * * * * * * * * * * * * * * * * * * * * * * * * * * * * * * * * //

dimensions      [1 -1 -2 0 0 0 0];


internalField   nonuniform List<scalar> 
449343
(
102616
102752
102979
103202
103302
103061
102284
100897
98952.5
96660
94313.3
92188.4
90478.4
89294.1
88690.9
102598
102735
102962
103185
103284
103042
102265
100878
98934.3
96643.6
94298
92172.7
90461.6
89276.2
88672.4
102583
102720
102948
103170
103268
103023
102243
100857
98916
96629.2
94286.2
92160.6
90447.3
89259.8
88654.8
102570
102707
102935
103156
103252
103001
102219
100831
98894.5
96613.8
94276.3
92151
90434.7
89244.2
88637.5
102557
102695
102924
103143
103236
102977
102190
100802
98870.3
96597.3
94267.1
92142.4
90422.7
89228.5
88619.8
102544
102682
102911
103129
103219
102953
102162
100774
98847.1
96581.6
94257.3
92133.1
90409.6
89211.7
88601
102529
102668
102897
103114
103200
102929
102135
100746
98823.4
96565.4
94243.3
92120.7
90393.6
89192.5
88580.2
102512
102651
102879
103095
103180
102907
102108
100715
98792.9
96540.5
94221.1
92099
90371.2
89169.4
88556.7
102493
102630
102859
103074
103159
102886
102090
100698
98773.9
96514
94191.7
92069.6
90343.4
89142.9
88531
102471
102608
102835
103050
103138
102867
102071
100679
98749.1
96482.1
94157.4
92033.7
90311.3
89114.2
88504
102447
102583
102810
103026
103116
102850
102058
100664
98728.4
96453.1
94122
91997.6
90278.7
89085.3
88477.1
102423
102559
102785
103002
103094
102836
102047
100654
98712.4
96428.5
94089.5
91963.8
90247.7
89057.6
88451.2
102399
102535
102760
102978
103073
102821
102034
100642
98696.2
96405.7
94060.3
91933.4
90219.6
89031.9
88426.9
102377
102512
102737
102955
103051
102803
102019
100627
98677.8
96382.9
94034.1
91906.8
90194.4
89008.3
88404.2
102356
102491
102716
102934
103030
102784
102001
100608
98658.3
96361.4
94011.2
91883.8
90172.1
88986.8
88383.1
102463
102647
102975
103351
103632
103615
102975
101525
99327.7
96695.9
94050.5
91726.8
89906.7
88669.1
88045.2
102446
102630
102959
103336
103615
103597
102955
101506
99310.1
96681.5
94037.2
91712.2
89890.1
88651
88026.4
102431
102616
102946
103323
103602
103579
102933
101486
99294.9
96672.4
94030.8
91702.7
89876.3
88634.2
88008.1
102418
102604
102936
103313
103589
103556
102904
101452
99271.2
96661.8
94028.6
91697.4
89864.7
88618
87989.8
102406
102593
102927
103304
103577
103525
102870
101417
99230.5
96650.4
94030.1
91694.9
89853.9
88601.5
87970.8
102393
102582
102918
103296
103565
103502
102836
101385
99210.9
96638.9
94030.3
91692.2
89842.4
88583.8
87950.5
102379
102569
102907
103284
103545
103483
102809
101356
99187.3
96631.7
94038
91689.2
89827.8
88564.2
87928.6
102363
102553
102890
103268
103528
103460
102778
101275
99147.5
96602.6
94015.8
91666.7
89804.5
88540.6
87904.5
102343
102532
102869
103244
103503
103439
102762
101306
99135.1
96576.6
93982.7
91635
89775.8
88513.4
87878.5
102321
102509
102843
103218
103484
103414
102742
101285
99106.6
96533.9
93925.9
91589.2
89741.4
88484.4
87851.9
102297
102483
102815
103188
103456
103397
102734
101275
99082.2
96500.1
93879.9
91546.1
89706.9
88456.1
87826.2
102273
102458
102787
103160
103431
103390
102731
101272
99084.9
96472.1
93837.8
91507
89675.2
88429.5
87801.8
102249
102433
102760
103133
103407
103377
102724
101269
99072.7
96446.5
93802.6
91473.6
89647
88404.9
87778.9
102227
102410
102736
103108
103384
103358
102710
101255
99053.8
96420.4
93772.8
91445.5
89622.1
88382.3
87757.3
102206
102388
102714
103086
103362
103339
102693
101237
99034.5
96398
93748.8
91422.1
89600
88361.2
87736.8
102073
102366
102923
103663
104413
104965
104736
103127
100255
96732.7
93354.2
90579.3
88520.6
87170.2
86503.4
102055
102349
102908
103649
104400
104949
104716
103109
100241
96723.9
93345.6
90566.6
88504.1
87151.4
86483.7
102040
102336
102898
103643
104395
104938
104692
103092
100230
96729.9
93352.2
90562.4
88490.8
87133.3
86463.6
102028
102325
102892
103642
104395
104918
104645
103061
100187
96734.4
93374.6
90567.6
88480.1
87115.1
86442.6
102016
102317
102890
103645
104393
104872
104551
102952
100103
96756.8
93403.1
90577.1
88471.1
87096
86420.1
102005
102310
102890
103650
104403
104838
104497
102919
100086
96770
93442.4
90589.7
88460.6
87075.6
86396
101992
102300
102883
103650
104378
104827
104461
102881
100057
96767.8
93543.3
90603.7
88449.4
87053.1
86370.5
101976
102285
102869
103638
104369
104819
104460
102865
100013
96733.1
93514.2
90580.5
88425.6
87028.9
86345.3
101957
102263
102845
103610
104334
104779
104408
102822
99992.9
96701.6
93478.3
90543.8
88393.2
86999.4
86317.8
101935
102239
102817
103573
104321
104746
104395
102806
99964.1
96649
93323.6
90476.8
88353.1
86971.3
86293.4
101910
102210
102780
103530
104271
104741
104406
102796
99937.6
96591
93239.1
90417.9
88316.8
86945.2
86271
101887
102183
102747
103492
104238
104750
104467
102871
99988.2
96533
93173.4
90369
88284.5
86921.7
86250.4
101863
102157
102716
103457
104203
104737
104482
102872
100002
96497.6
93118.1
90328.2
88257.2
86900.3
86231
101841
102134
102690
103427
104172
104714
104474
102859
99984.2
96462
93079.7
90298
88233.7
86880.1
86212
101821
102112
102667
103403
104148
104693
104457
102842
99964.4
96436.9
93053.4
90274.3
88212.6
86860.5
86192.9
101314
101766
102668
103994
105611
107231
108175
106262
101903
96513.1
91892.8
88492.2
86153
84690.4
83989.6
101296
101749
102654
103984
105603
107223
108150
106246
101890
96512.8
91890
88480.3
86135.1
84669.9
83968.1
101279
101735
102647
103986
105613
107229
108132
106251
101917
96558.9
91915.3
88478.6
86119.1
84648.2
83944.4
101265
101725
102647
104005
105637
107255
107951
106252
101819
96667.5
91990.4
88491.1
86104.2
84624.3
83917.7
101252
101719
102655
104024
105672
107183
107165
105922
102590
96819.1
92083.4
88518
86088.7
84596.6
83887.4
101241
101716
102675
104089
105750
106386
107019
105874
102614
98052.3
92212.8
88550.5
86074.2
84565.8
83854.7
101228
101709
102679
104103
105078
106402
106962
105809
102556
98049.9
93483.7
88561.3
86046
84532.5
83820.3
101213
101698
102674
104096
105063
106403
106958
105679
102512
98023.3
93433
88534.1
86031.8
84511.9
83791.7
101194
101673
102641
104062
105034
106365
106906
105720
102474
97976.7
93399
88491.9
85983.7
84473.8
83764.9
101176
101650
102606
104015
105667
106302
106884
105718
102444
97926.8
92063
88419.2
85955.6
84453.6
83745.8
101151
101617
102549
103912
105551
107050
106989
105739
102432
96623.9
91891.4
88339.6
85921.9
84437.4
83731.4
101131
101590
102509
103861
105483
107086
107767
106048
101597
96442.6
91770.4
88278.9
85898.7
84423.4
83719.1
101110
101565
102472
103806
105425
107033
107920
106026
101678
96316.3
91671.9
88236.8
85879.1
84409.7
83706.7
101090
101542
102444
103769
105382
106995
107912
106000
101638
96253.5
91624.6
88210
85861.9
84395.1
83692.8
101071
101521
102421
103743
105353
106968
107903
105984
101621
96225.6
91596.8
88188.4
85844.1
84378.5
83676.3
99984.9
100611
101911
103980
106876
110504
114398
111733
104387
95286.5
88960.4
85059.6
82605.9
81160.4
80496.8
99964.3
100592
101896
103971
106875
110509
114376
111723
104397
95306.1
88962
85043.5
82583.4
81136.4
80472.5
99943.3
100574
101886
103978
106910
110557
114383
111737
104472
95378.4
88992.9
85030.9
82557
81107.4
80442.8
99922.6
100560
101889
104037
107071
110725
112053
111826
106080
95871.5
89172.6
85043.2
82525.9
81071.8
80406.4
99901.9
100545
101901
104086
107141
109200
112007
111750
106167
98157
89332.5
85042.4
82483.1
81023
80361.7
99885
100545
101949
104284
106266
109373
112012
111609
106105
98369.5
91537.3
85103.1
82422.7
80976.1
80313.6
99865
100525
101936
103678
106318
109452
111049
110886
106402
99342.2
91689
86916.5
82299.9
80901.7
80260
99853
100521
101989
103670
106345
109465
111037
110819
106367
99322.1
91704.9
86933.9
82386.1
80871.3
80232.3
99833.4
100491
101900
103637
106309
109429
110983
110777
106280
99253.6
91631.9
86878.4
82226.8
80838.9
80200.5
99826.3
100486
101887
104215
106186
109292
111011
110754
106227
98215.1
91431
84941
82289.6
80853.9
80197.8
99809
100450
101802
103981
107023
109116
111816
111408
105818
98011.9
89087.5
84831
82298.3
80853.3
80197.6
99799.2
100435
101761
103902
106926
110558
111836
111588
105921
95600.9
88923
84813.4
82307.6
80861.5
80200.3
99785.5
100414
101723
103809
106731
110367
114176
111540
104226
95124.5
88738.8
84780.6
82310.3
80863
80199.5
99771.4
100397
101699
103769
106667
110292
114147
111492
104156
95059.3
88702.4
84774.2
82308.3
80858.5
80193.4
99754.7
100379
101677
103741
106632
110254
114140
111473
104129
95023.9
88677.7
84761.1
82297.8
80846.9
80180.9
97833.9
98585.3
100208
102986
107406
114353
119998
125446
111878
90749
83358.2
79739.5
77630.6
76513.6
76039.3
97808.3
98560.7
100186
102973
107410
114361
119990
125431
111863
90751.2
83343.9
79708
77599.6
76485.3
76012
97776.8
98530.7
100161
102954
107419
114410
119989
125425
111845
90733
83301.3
79643.5
77550.2
76445
75975.4
97742.4
98503.6
100153
103007
107808
112231
120076
125535
111857
95239.2
83400.4
79520
77481.5
76392.8
75927.4
97700.7
98458.9
100115
103068
106570
112502
120384
123122
113268
96010.2
86678.1
79378.3
77321.6
76303.7
75863.1
97668.9
98422.4
100161
102643
106672
111550
118589
122042
113308
98324.4
86812
81750.3
77146.1
76191.7
75789.8
97632.4
98373.7
100137
102671
106802
111573
117646
121983
113740
99241.4
88494.7
81739.1
76984.7
76081.3
75715.5
97610.7
98339.4
100130
102719
106137
111042
117628
121880
113575
99143.4
88393.6
81676.9
78886.9
76005.1
75676.9
97606
98347.9
100113
102677
106112
111496
117586
121800
113442
99012.7
88299.6
81580.8
76899.2
76011.4
75650.6
97618.5
98372.1
100106
102566
106713
111507
117515
121783
113407
98895.7
88278.2
81579.5
76990.3
76060.9
75667
97619.5
98374.5
100028
102979
106473
112436
118323
122757
112885
97754.4
86476.9
79122.1
77116.3
76121.1
75689.9
97633.2
98394.9
100041
102887
107678
112120
119932
125303
111558
95091.9
83117.8
79270
77249
76173.1
75713.4
97634.8
98386.5
100014
102802
107257
114232
119795
125198
111601
90478.4
83043.3
79388.2
77298.5
76195.1
75726.4
97632.4
98383.7
100007
102789
107219
114158
119767
125209
111649
90538.8
83099.5
79444.3
77324.9
76205
75729.5
97621.1
98371.2
99990.8
102764
107179
114117
119760
125219
111679
90554.8
83105
79454.4
77326.7
76199.8
75721.3
94637
95365.6
96991.4
99945.4
104974
111861
128403
158387
116126
83213.3
73092.6
71788.7
71057.3
70825.6
70764.4
94604.4
95332.4
96956.7
99909.8
104946
111836
128368
158355
116026
83152.4
73030.7
71728.2
71018.3
70794.9
70736.5
94555.1
95276.4
96891.4
99819.9
104820
111800
128278
158299
115942
83108.5
72895.1
71619.9
70950.3
70746
70697.2
94497
95212.1
96817.4
99593.7
104186
112157
128281
158173
115750
83223.5
76263.4
71263.6
70835.2
70673
70643.3
94415.6
95106.1
96616.3
99649.8
104197
111258
125330
158065
117041
87276.6
75977.9
73419.5
70543.1
70556.1
70565.8
94336.8
94951.1
97070.5
99692.7
103925
111217
123903
153071
121941
89417.9
78220.9
73219.7
72155.8
70395.5
70477.9
94288.4
94896.3
97052
99673.6
103933
110769
123782
152957
122114
89433.8
79413.3
74675.5
72032.9
70331.7
70414.6
94249.5
94856.1
97094.9
99682.6
103916
110722
123712
152815
121465
89057.2
79229.9
74555.8
71973
70302.6
70354.8
94267.3
94875.3
97040.4
99690.3
103923
110706
123684
152719
121038
88707
79065.4
74472.7
71890.6
70258.4
70344.7
94298.9
94914
97037
99619
103907
110716
123708
152717
120929
88568.9
78987.4
74455.5
71931.4
70260.5
70349.6
94351
95040.4
96549.9
99574.8
104118
111174
123804
152822
121010
88589.5
77858.5
73015.6
70323.4
70363.5
70384.4
94406.3
95121.5
96729
99496.8
103968
111958
125209
157864
115574
86970.5
75811.5
70992.2
70593
70446.3
70422.2
94435
95155.7
96767.4
99695.3
104689
111652
128119
158018
115632
82875.5
72648.3
71363.7
70694.6
70491
70443
94450.4
95177.7
96800.6
99749.6
104781
111676
128152
158117
115803
82990.8
72810.1
71475.9
70746
70512.8
70450.5
94446.6
95174.4
96797.9
99747.8
104771
111645
128173
158158
116036
83114.3
72887.3
71522.8
70759.5
70511.9
70444.2
90328.1
90776.9
91775.7
93600.1
96590.3
103346
110793
108366
25374.8
53232.2
58369.1
61402
63331.7
64553.2
65112.3
90289
90734.9
91728.4
93540.9
96536.4
103289
110746
108267
24072.6
53112
58263
61345.9
63303.1
64529.2
65090.7
90225.7
90658.6
91639.7
93455.6
96402.9
103170
110637
108174
23862.7
53054.3
58154.4
61312.1
63270.4
64499.2
65066.1
90142
90545.1
91499.9
93149.9
97657.3
102736
110369
108032
23637.5
53203
59578.3
61367.8
63241.6
64459
65037.6
90030.1
90396.4
91258.3
94263
97385.5
103114
111108
107806
26830.3
56840.1
61136.5
62605.6
63261
64428.4
64998.2
89904.1
90249.2
92375
94126.1
97826.6
103316
110882
107463
27221.3
57528.7
62145.5
62707.9
64270.4
64444.1
64956.8
89856.3
90190.8
92337.7
94031.2
98050.4
103227
110751
107291
34413.3
57878.8
62252.4
63569.4
64200.4
64444.6
64938.9
89827.9
90149.7
92294.7
94652.7
98031.1
103181
110695
107235
25284.1
57120.3
62096.6
63977.1
64205.5
64445.5
64894.8
89842.9
90178.1
92292.2
94637.9
98025.8
103177
110699
107301
23778.9
56551
61884.3
63877
64115.7
64370.6
64865.8
89881.1
90225
92331.8
94030.5
98028
103213
110754
107407
23622.7
56357.1
61722.6
63327
64051.3
64302.5
64823.6
89987.2
90357.5
91222.5
94145.7
97812.8
103285
110870
107546
23849.9
56296.5
61540.2
62305.9
63037.3
64231.2
64810.9
90077.9
90481.5
91436.3
93090.9
97486.6
102351
110008
107859
24260.6
54619.9
59119.7
61095.9
62998.3
64228
64811
90132.1
90566
91547.8
93359.4
96306.7
102841
110355
107952
23553.1
52812.9
57930
61069.8
63015.5
64240.6
64806.6
90163
90609.3
91602.9
93414.5
96406.5
103106
110524
108033
23612.5
52993.2
58085.1
61105.7
63033.3
64244.8
64800.2
90165.6
90614.4
91612.4
93434.2
96418.8
103147
110568
108059
25028.1
53289.1
58222
61156.6
63039.2
64238
64788.1
85172.9
85098
84930.4
84683
84732.1
88873.5
92676.3
105843
6149.08
32104.7
44755.4
51583.6
56077.8
58715.9
59904.3
85133.2
85054.7
84883.3
84628.5
84689.9
88809.6
92616.9
105626
2645.7
32077.6
44675.8
51573.1
56073.3
58707.5
59896
85072.4
84985
84806.3
84586.5
84625.2
88680.9
92492
105519
2967.52
32120.1
44708.7
51628
56097.9
58720.6
59902.7
84995.9
84879.8
84698.6
84623.4
87361.2
88588.6
92250.5
105377
2438.14
32329.9
44938.2
51889
56179
58761.9
59929
84904.1
84764.6
84636.3
86584.2
87354.1
90382.2
93276.5
105350
2323.08
32154.4
45605.3
52627
56328.3
58843.8
59969.1
84809.5
84738.8
86196.9
86484
88557.7
91132.6
93120.3
104977
7633.41
32585.4
45998.8
52658.3
56946.5
58923
60009.1
84781.8
84719.4
86092.6
86439.8
89173.2
91027.5
93018.2
104883
2301.34
32608.7
46073.3
52999.8
56935.8
58938.9
60018.7
84766
84697
86042.4
87413.8
89126.8
90983.4
92977.7
104814
4814.26
32558.5
46014.1
53166.6
56886.1
58933
59987.7
84780.8
84720.4
86047.2
87407.7
89132.2
90991.7
92988.5
104853
9482.3
32454.9
45891.3
53089.6
56826.2
58859.9
59945.9
84803.1
84732.2
86101.7
86483.6
89171.3
91047.4
93043.8
104904
2324.23
32241
45749.6
52803.8
56786.2
58774.7
59870.5
84888.7
84756.1
84630.3
86499.5
88600
91161.2
93141.6
104992
2308.52
32071
45595.2
52338.3
56108.2
58643.5
59777
84963
84851.4
84679.9
84603.3
87374.5
88699.3
92371.6
105350
2311.04
31986.3
44894.6
51643
55938
58526.8
59696.7
85011.5
84927.4
84755.8
84544.9
84580.8
88576.6
92293
105316
2315.34
32036.1
44504.9
51393.2
55841.8
58456.8
59636.2
85040.3
84964
84795.2
84541.4
84602.8
88653.3
92427.2
105414
3834.86
32020.5
44487.4
51329.5
55798.4
58415.9
59597.3
85043.2
84969.5
84803.1
84553.9
84598.3
88705.8
92481
105459
4822.88
32048.5
44572.1
51330.1
55778.4
58392.7
59571.3
79867.6
79204.6
77836.6
75680.3
75394.1
74464.9
77127.6
4046.6
24462.1
37515.2
45574.3
51197.6
54586.8
56169.5
79832.1
79165.9
77795.2
75637
75337.7
74390.9
77043.1
2295.92
24284.7
37478.7
45594.7
51206.4
54591.3
56172.4
79785.8
79118.8
77735.1
75576.1
75314
74314.9
76894.8
2295.76
24084.2
37602.1
45665.7
51255
54632.6
56202.1
79743.2
79070.2
77668.7
75704.1
75576.1
74194.3
76675.6
2298.66
24242.1
36669.1
45953.5
51373.9
54719.5
56262.5
79712.1
79035.7
77779.9
77734.7
76111.3
76236.8
77313.5
2323.5
22058.5
36234.1
45615.2
51544.3
54846.6
56343.3
79690.6
79149.6
79245.5
77973.2
77444.3
77175
77226.6
2295.86
22072.4
36038
45699
51406
54901.5
56425
79692.9
79165.5
79183.3
78052.4
78218.9
77181.3
77175.1
2320.42
22048.1
36106.5
45474
51462.8
54901.3
56434.3
79690.5
79170.5
79167.9
78931.7
78312.8
77189
77163.2
2297.99
22162.3
36110.5
45356.5
51424.6
54888.7
56404.2
79706.7
79184.5
79177.3
78960.6
78335.1
77216.8
77195.6
2337.19
22138.7
36042.8
45294.6
51371.5
54822.2
56359.7
79706.7
79166.6
79218.7
78105
78274.5
77247.1
77249
2323.59
21980.4
35920.1
45307.7
51306.2
54751.4
56279.4
79729.2
79066
77823.8
77769.8
77476.4
77241.7
77301.3
2293.76
21850.8
35787.6
45411.4
51326.4
54640.1
56144.7
79746.2
79081.6
77704.5
75746.7
75672.9
74393.9
76463.9
2290.21
22626.1
36580.7
45711.1
51128.1
54476.6
56020.9
79762.3
79102
77731
75592.2
75326.2
74282.9
76785
2292.55
23960.8
37384.6
45419.4
50987.1
54357.1
55923.4
79776.1
79114.6
77751
75596
75325.5
74317.3
76900.6
2292.14
24204.4
37249.5
45325.7
50912
54283.5
55858.7
79774.3
79114.5
77751.1
75593.8
75277.8
74323.8
76941.3
2297.28
24203.9
37253.6
45275.6
50871.2
54244.4
55819.6
75327.7
74108.5
71565.1
67165.8
64938.8
57645.2
53764.2
3683.5
2298.07
23171.1
35297.7
43665.5
49443.2
52972.5
54667.8
75291.9
74067.6
71513.5
67096.7
64858.6
57511.8
53548.8
2882.59
2295.83
22943.6
35255.7
43680.7
49447
52979.5
54672.8
75247.6
74021.5
71438.5
66967
64755.3
57326.6
53282.8
2555.96
2294.8
19651.4
35442.6
43736.2
49493.5
53021.7
54704.3
75214.4
73991.7
71325.6
66883.9
64654.2
57127.3
53155.9
2456.09
2300.39
20117.2
33087.6
43885
49589.3
53104.4
54763.8
75210.4
73970.1
71260.8
69854.6
64430.8
59967.4
55027.2
2342.6
2298.23
18162.6
31970.5
42359.7
49689.6
53229.1
54837.6
75221.3
73993.3
73219.1
69715.8
66353.5
61247.1
55081
2793.54
2295.27
18183.9
31446.4
42414.5
48685.8
53272.1
54921.4
75228.5
73995.8
73205.1
69607.8
67201
61230.3
55028.9
2540.59
2290.16
18255.5
31512.8
41636
48727.6
53262.6
54922.4
75233.3
74013
73202.1
71002.2
67225
61268.8
55036
2444.3
2294.42
18483.5
31523.2
41235.8
48707.2
53241.9
54894.2
75258.9
74036.5
73232.2
71054
67282.4
61356.8
55139.4
2367.72
2307.85
18246.3
31428.2
41168.7
48653.3
53178.1
54843.2
75267.1
74054.6
73293.6
69756.6
67361.7
61429.3
55237.6
2783.87
2288.59
18032.6
31290.5
41461
48570.7
53112.2
54765.4
75263.7
74041
71374.6
69952.9
66544.7
61440.4
55243
2445.3
2283.44
17915
31182.4
42128.8
49454.9
53008.6
54627.7
75256.5
74046.5
71416.8
67015.6
64717.8
57266
53332.9
2518.57
2306.86
18777.8
32898.1
43618.4
49324
52845.6
54506.4
75263.5
74048.9
71486.9
67045.7
64769.6
57358.8
53366.8
2515.23
2295.69
19683.2
35188.1
43458.1
49202.7
52726.2
54406.4
75273.9
74058
71519.4
67116.1
64860.4
57458.1
53434.7
2747.65
2295.03
22616
34983.9
43372.6
49124.3
52647.7
54336.7
75271.5
74058.4
71525.5
67130.9
64877.2
57510.3
53464.8
2462.98
2295.42
22842.6
34983
43318.3
49083.1
52603.1
54293.3
72396.3
70724.5
67193
61011.6
50475.6
41171.1
17275.6
2309.18
2308.59
24782.1
36789.5
45006.8
50591.1
53979.1
55602.3
72350.9
70670.9
67113.1
60896.1
50304.5
40948.3
17150.8
2278.84
2301.26
24481.2
36744.2
44992.4
50581.9
53979.8
55603.1
72290.1
70603.3
67008.5
60751.2
50099
40517
17027.9
2283.24
2300.83
20206.5
36703.7
45032.6
50610.7
54007.3
55626.2
72231.2
70554.1
66864.4
60585.8
54621.6
40133
16864.8
2287.28
2300.24
20244.2
33122.6
45079.9
50663.1
54059.5
55672.1
72203.9
70525.1
66799.6
63255.1
54548.1
43941.8
23430.9
2313.63
2277.08
17565.9
31612
42560.6
50721.7
54158.9
55729.3
72208
70502
68537.8
63200.7
56768.4
45768.4
24264.7
2292.44
2271.12
17703.8
30888.5
42586.7
48929.1
54211
55804.2
72201.3
70485.4
68573.4
63147.3
57759.6
45771.5
24196
2330.2
2369.75
17800.3
30937.2
41347
48940.4
54204.6
55802.6
72210
70507.8
68602.2
64608.6
57772.3
45879.3
24268.4
2303.7
2284.88
17849.5
30876.2
40690.4
48910.4
54176.3
55776.4
72248.4
70549.2
68650.4
64685.9
57902.7
46174.5
24616.3
2316.77
2335.43
17579.2
30719.7
40594.7
48854.1
54109.3
55715
72282
70605
68717.1
63378.8
58070.5
46395.4
25129.6
2237.14
2294
17347.7
30551
41101.3
48770.6
54033.5
55633.4
72294.5
70640
66987.8
63551.3
57106.6
46233.7
24597.3
2279.44
2282.94
17201.9
30447.5
42243.1
50454.8
53916.9
55502.2
72311.5
70655.6
67020.5
60816.3
54881.9
40495.4
18867.4
2299.99
2302.68
18314.8
32913.4
44776.6
50370.1
53777.4
55392.5
72342.7
70674.9
67115.7
60911.9
50302.5
40591.1
17086.6
2274.99
2301.33
19996.6
36397.5
44719.1
50291.3
53684.7
55302.8
72368
70702
67171.6
60988
50424.1
40878
17133.7
2270.17
2300.44
24139.2
36437.3
44646.5
50228.2
53618.4
55238.5
72373.6
70712.7
67200.4
61038.3
50507.1
41093.4
17166.2
2291.53
2302.5
24478.2
36415.1
44619.1
50197.7
53578.1
55197.5
71755.4
69962.9
66131.3
59650.5
48388.6
37133.8
4287.27
2308.87
2325.9
29871.5
41722.2
49361.8
54385.1
57346.8
58751.4
71695.1
69890.7
66017.2
59444.4
48164.7
36584
3909.15
2253.59
2498.34
29836.6
41612.7
49304.5
54356.7
57337.8
58746.6
71612.8
69796.5
65875.6
59172.1
48445.5
35173.7
5976.84
2280.95
2303.54
23226.4
41577.6
49352.6
54358.7
57353
58762.5
71527.5
69719.6
65744.6
59014.1
50871.3
34252.9
8001.46
2291.06
2299.9
23398.3
36941
49378.2
54389.2
57388.5
58800.8
71478.6
69690.4
65740
60652.3
50577.9
37063.9
16300.7
2257.92
2294.6
20128.4
34983.2
46119.6
54469
57483.7
58852.9
71475.8
69691.6
66712.5
60541.4
52129
38233.7
16284.4
2271.86
2297.49
20925.5
34188.4
46170.1
52077.2
57581.2
58940.3
71459.7
69672.7
66727.8
60517.4
52849.1
38200.2
16308.4
2304.67
2231.02
20903.8
34224.4
44551.2
52080.5
57594.2
58944.1
71474.9
69699.3
66784.4
61609.7
52879.9
38368.9
16541.4
2293.21
2290.91
20146.7
33954.1
43653.2
52052.8
57565.1
58919.3
71519.6
69755.3
66854.5
61698.8
53081.3
38938
18339.3
2280.39
2303.62
19750.8
33657.7
43510.5
51984.5
57488.4
58845.9
71571.5
69828.6
66916.8
60860.2
53328.7
39459.9
23723.2
2760.24
2296.25
19475.7
33411.6
44190.8
51887
57385.1
58749.1
71598.9
69847.7
66000
61030.9
52666.6
39110
17369.7
2287.54
2293.95
19278.7
33284.3
45744
54178.1
57218.5
58605.6
71636.9
69863.7
65970.7
59360
51145.7
35237.1
16114.8
2297.2
2294.77
20712.3
36613.4
49056.1
54071.7
57079.8
58494
71692.1
69904.9
66041.4
59420.9
48768.8
34890
6327.94
2286.77
2304.31
23028.6
41236
49016.8
54010.6
56999.2
58407.9
71736.7
69954.7
66126.4
59606.6
48391
36752.5
4062.71
2269.04
2318.06
29531.8
41257.1
48927
53970.7
56942.1
58347.7
71755.4
69981.3
66184.7
59741.3
48487.4
37286.6
3750.39
2285.74
2308.76
29446.5
41242.9
48930.5
53954.4
56908.5
58310.4
73709.5
72265.4
69162.7
64200.3
54046
42592.3
2311.64
2310.41
22348.3
44571.7
51121
56987.2
60631
62727.9
63732.8
73633.5
72168.8
69008.7
63878.1
53587.9
41724.2
2308.79
2303.74
22652.8
44135
50898
56882.5
60578.5
62709.6
63723.6
73529.2
72040
68818.9
63323.8
54896.7
39677.3
9051.92
2352.04
4122.02
33513.1
50902.5
56822.4
60535.7
62717.5
63736.6
73420.3
71909
68595.8
63009.9
54346.5
38488.9
11281.8
2299.93
2302.28
31953.2
45166.5
56820.4
60534.5
62750.1
63777.5
73349.9
71836.4
68523.9
62962
53549
39138.3
16984.1
2283.73
2302.34
26898.2
42505
53024.6
60702.1
62858.7
63843.8
73333
71846.8
68442.8
62680.9
53863.2
39349.6
16739.6
2260.59
2545.13
30738.7
41631
53105.1
57914
63048.9
63956.6
73306.1
71817.7
68390.3
62589
54031.4
39061.3
16552.6
2373.59
23740.2
31033.6
41834.7
51259.5
57942
63092.5
63973.8
73324.3
71845.5
68434.3
63014.8
54004.5
39096.3
16695.5
2306.33
2302.12
27490.7
41528.5
50259.9
57970.6
63072.8
63952.8
73370.4
71909.1
68523.3
63128.3
54217.8
39475.9
17018.6
2280.66
2305.15
26384
41091.7
50105.2
57887.7
62980.4
63867.1
73437.5
72000.8
68629.2
63041
54575.8
40016.8
17234.5
2284.09
2315.15
25728
40661
50898.4
57735.3
62836.9
63747.7
73481.1
72018.8
68837.6
63326
54626.5
40453.1
18545.7
6861.63
2301.82
25385.5
40447.5
52741.5
60412.3
62574.9
63568.5
73538.4
72076.8
68876.8
63495.2
54619.6
39239.6
16859.4
2262.61
2302.25
27545.3
44779.6
56518.1
60203.2
62412.5
63436.5
73614.5
72165.4
69029.5
63665.2
55438.9
39756.5
10848.9
2336.54
2410.09
32197.5
50578.3
56478
60157.2
62326.8
63343.2
73678.4
72245.7
69151.7
64111.2
53886
42121.7
2309.22
2302.15
21761.4
43843.4
50494.1
56482.7
60154.6
62272.2
63282.7
73711.3
72294.1
69244.2
64364
54189.1
42891.5
2311.97
2304.57
19312
43817.7
50487.2
56510
60151.9
62243.1
63247.5
77875.6
77158.1
75601.2
74047.1
69795.5
71309.4
81964.7
48688.7
67832.8
66581.8
65505.8
67697.6
68792.6
69572.6
70000.9
77786.3
77030.4
75388.9
73486.5
68609.3
67374.3
68725.7
19178.9
61647.5
64343.3
64916.2
67457.6
68704.5
69546
69989
77661.9
76857.5
75169.4
72391.2
68980.5
56724
39723.4
20078.9
33438.1
53072.2
64737.9
67092.3
68612.1
69544.8
69998.9
77527.5
76669.5
74800.6
71868.8
64534.7
53317.8
29115
2361.38
18699
49962.5
58680.4
67002.2
68566.4
69579.5
70043.4
77432.8
76540.7
74649.4
69908.9
63411.6
50896.3
26445.6
2276.07
8637.56
40149.6
54987.4
63132.3
68754.7
69686.9
70123.8
77402.9
76544.3
73364.4
69440.8
62196.6
49365
26272.5
7938.3
3781.87
38261.3
53095.8
63281.5
66023.5
69879.9
70254.6
77362.4
76502.7
73194.4
69317.1
61631.6
48571.8
23873.4
2315.31
2465.5
40220.2
53852.2
61377.9
66159.1
69937.1
70281.9
77376.1
76527.5
73222.7
68879.5
61535.8
48405.8
23490.4
2246.18
28134
44797.2
54803.4
60472.6
66295.8
69925.2
70262.1
77416.5
76585
73314.4
69020.1
61793.2
48859
23909.2
2388.9
11093.7
43047.1
54579.6
60394.5
66202.4
69814
70163.8
77490.5
76682.3
73457.3
69853.5
62321.7
49767.8
24724
2268.65
6552.73
40923
53833.6
61237.8
65948.7
69642.2
70024.8
77541.3
76713.6
74984
70136.8
63287.6
51065.5
26430.1
2287.94
7843.22
39832.9
53387.1
63140
68447.8
69376.4
69808.5
77618.1
76823.6
75110.2
72478.5
64871.6
54305.6
28495.5
2276.31
10074
43751.7
58451.5
66695.4
68208.8
69198.8
69655.8
77716.4
76962.4
75392
72823.6
69778.4
55969.8
33447.1
10000.2
31667
52095.1
64502.6
66734
68190.9
69105.4
69555
77798.1
77082.8
75529.3
73789
69121
68146.3
72209.3
21947.8
63128.5
64577.5
64610.3
67068.4
68236.3
69057.6
69495.3
77843.8
77161.6
75670.8
74249.9
70053.1
70687
83416
34300.9
66467.7
65838.1
64853
67199.7
68256.4
69033.6
69461.3
83242
83381.8
83530.9
85616.9
88480.9
95209.8
128419
138445
111107
88695.8
81594.2
79211.6
77530.7
76961.3
76765.7
83156.8
83248.2
83349.2
85182.9
87977.6
95201.7
136322
155972
110111
87412.6
81075.4
78928.4
77445.3
76936.4
76757.4
83033.7
83033.1
83169.9
83738.7
86350.4
86045.9
111504
133829
107086
83279.6
80152.7
78401.3
77373.3
76932.5
76771.1
82893.7
82830.7
82740.6
83136
80221.3
81601.8
91584.9
96012
87985.4
79988.9
76564.9
78136
77339.1
76978.7
76821.5
82787.1
82677.7
82466.1
79977.5
78962.9
74519.8
62780
2329.05
47955.6
68167.5
73193.2
75451.1
77411
77079.2
76903.9
82747.2
82556.2
80483.2
79507.4
76263.7
70638.5
53712.3
2203.63
24932.7
62423.2
71042.3
75594.9
75479.7
77149.6
77014.4
82695.7
82497
80353.7
79339.3
74885
69532.8
52283.4
2288.2
2947.31
65455.5
72088.5
74274.8
75664.2
77180
77037.7
82696.9
82507.4
80374.4
78091.6
74875.7
69314.2
51266.4
2157.61
89027.6
74046.7
73639.6
73780.7
75714
77157.5
77011
82717.6
82537.8
80443.2
78224.5
75183.5
70156
53208.6
2097.73
51064.8
71916.9
73599.1
73724.8
75609.4
77031.6
76895.8
82779.6
82630.8
80563.6
79779.1
75732.7
71807.6
58099.9
2186.96
38985.5
69481.3
72725.4
74153
75383.3
76872.4
76743.7
82821.9
82767.1
82699.3
80166.7
77562.4
73840.2
64338
2307.93
50679.5
69260
72193.8
75299
76997.1
76688.1
76524.3
82904.6
82900.4
82968.6
83595.1
80902.3
82683.1
79114.6
26140.5
62689
74695.8
76283.5
77673.5
76879.4
76516.7
76366.3
83006.7
83056
83314.2
84126.8
87153.2
86363.5
109756
146610
107723
82763.9
79852.4
77952.3
76866.6
76419.5
76258.6
83086.7
83222.2
83417.2
85441.6
88737.6
95630.4
138100
156014
111784
87614.3
80832.2
78504.4
76907.8
76381.6
76196.4
83130.5
83314.5
83544.7
85820.5
89398.8
95304.3
133676
148904
112428
88200.3
81100.9
78671
76923.6
76357
76158.6
88509.1
89227
90344.5
93561.9
98973.6
101876
116801
121343
111179
98686.6
92624.7
88126.6
85091.8
83731.6
83090
88468.1
89165.7
90362.5
93742.1
99815.4
103858
122424
131092
111542
99746
92906.4
88129.2
85118.3
83743.8
83104.5
88401.8
88993.1
90387.4
93062.5
98699.9
104096
117345
137388
115700
101925
92474.6
87946.2
85177.6
83773.6
83149.7
88305.9
88861.6
90124.3
92913.9
94527.1
103971
122583
149383
126797
102688
92239.4
87908.6
85271.2
83859
83228.6
88205.5
88700
89785.2
90124.5
93793.4
99742.5
117423
181689
133519
102360
91468.6
86965.5
85289.6
83946.9
83311.6
88133.8
88467.1
88087.2
89601.1
91417.3
96869.4
116845
196617
141991
102627
91312.4
87163.4
84483.7
83919.4
83399.9
88074.4
88379.8
88035.4
89338.5
90193.4
96134.7
112665
168621
163710
104852
92322.9
86934.8
84646.1
83938.3
83422
88054.8
88354.1
88018.9
88328.9
90043.6
96049.4
112960
185563
155587
106168
93066.9
86888
84596.1
83894.1
83386.8
88037.9
88344.1
88035.8
88352.3
90173.1
96504.9
114430
186863
153280
105783
92642.2
86664.6
84428.2
83740.4
83242.3
88064.9
88407
88075.9
89470.6
90486.7
97305.1
117276
183356
132974
102447
91343.5
86297.5
84166.2
83550
83063
88107.6
88615
89755.7
89991.5
91826
98055.1
118399
153625
125552
100313
90283.1
86266.8
84686
83439.4
82848.6
88174
88746
90067.2
92944.7
94509.8
104044
120384
164589
126279
100664
90924
87105.3
84615.7
83273.8
82683.4
88231.6
88844.9
90286.8
93040.1
98841.1
104271
118387
141075
116547
101473
91616.3
87230.1
84512.5
83154.1
82549.1
88257.8
88978.9
90230.6
93599.7
100108
103734
122238
131617
111521
99193.5
92361
87497.2
84454.8
83093.7
82459.5
88263.2
89015.2
90208.3
93425.6
99809.3
102329
118726
126936
110661
98517.8
92122
87439.4
84384.6
83038.7
82400.7
92696
93500.9
94670.1
96655.3
100952
100858
103718
106133
102271
99238.7
96444.7
92943.3
90374.2
88994.5
88238.5
92725.6
93551.5
94863.7
97188.3
101978
102500
105633
105929
103063
101015
97128.9
93270.4
90558.5