/*--------------------------------*- C++ -*----------------------------------*\
| =========                 |                                                 |
| \\      /  F ield         | OpenFOAM: The Open Source CFD Toolbox           |
|  \\    /   O peration     | Version:  v2012                                 |
|   \\  /    A nd           | Website:  www.openfoam.com                      |
|    \\/     M anipulation  |                                                 |
\*---------------------------------------------------------------------------*/
FoamFile
{
    version     2.0;
    format      ascii;
    class       volScalarField;
    location    "0.012";
    object      p_rgh;
}
// * * * * * * * * * * * * * * * * * * * * * * * * * * * * * * * * * * * * * //

dimensions      [1 -1 -2 0 0 0 0];


internalField   nonuniform List<scalar> 
449343
(
102478
102614
102842
103064
103164
102924
102147
100760
98815.2
96522.7
94176
92051.1
90341
89156.7
88553.5
102481
102617
102845
103067
103166
102924
102147
100760
98816.5
96525.9
94180.2
92055
90343.8
89158.5
88554.7
102485
102622
102850
103072
103170
102925
102145
100758
98817.9
96531.1
94188.1
92062.5
90349.2
89161.7
88556.7
102491
102628
102857
103078
103174
102922
102140
100752
98816
96535.3
94197.9
92072.5
90356.2
89165.7
88559
102498
102636
102865
103084
103177
102918
102131
100743
98811.5
96538.4
94208.2
92083.5
90363.8
89169.7
88561
102505
102643
102872
103090
103180
102914
102123
100735
98807.8
96542.3
94218.1
92093.8
90370.4
89172.5
88561.8
102510
102648
102877
103094
103181
102910
102116
100726
98803.8
96545.8
94223.6
92101.1
90374
89172.8
88560.5
102512
102651
102879
103095
103180
102907
102108
100715
98792.9
96540.5
94221.1
92099
90371.2
89169.4
88556.7
102512
102650
102878
103093
103179
102905
102109
100717
98793.5
96533.6
94211.4
92089.2
90363
89162.5
88550.6
102510
102647
102875
103090
103178
102906
102111
100718
98788.4
96521.4
94196.7
92073
90350.5
89153.5
88543.2
102506
102642
102869
103085
103175
102909
102117
100723
98787.3
96511.9
94180.9
92056.4
90337.5
89144.1
88535.9
102501
102637
102863
103080
103173
102914
102126
100732
98790.8
96507
94168
92042.3
90326.2
89136.1
88529.7
102498
102633
102858
103076
103171
102919
102133
100740
98794.3
96503.8
94158.4
92031.5
90317.7
89130
88525
102495
102630
102855
103073
103169
102921
102137
100744
98795.5
96500.6
94151.8
92024.5
90312.1
89126.1
88522
102493
102628
102853
103071
103168
102921
102138
100746
98795.6
96498.8
94148.6
92021.2
90309.4
89124.1
88520.5
102326
102510
102838
103214
103494
103478
102837
101388
99190.4
96558.6
93913.2
91589.5
89769.4
88531.8
87907.9
102328
102513
102841
103218
103498
103479
102837
101388
99192.4
96563.8
93919.5
91594.5
89772.4
88533.3
87908.7
102333
102518
102848
103225
103504
103481
102835
101387
99196.8
96574.3
93932.7
91604.6
89778.2
88536.1
87910
102339
102525
102857
103235
103511
103478
102825
101374
99192.7
96583.3
93950.1
91619
89786.2
88539.5
87911.3
102347
102534
102868
103245
103518
103466
102811
101358
99171.6
96591.5
93971.3
91636
89795
88542.7
87911.9
102354
102543
102879
103257
103526
103463
102797
101346
99171.7
96599.7
93991
91653
89803.2
88544.6
87911.3
102360
102550
102887
103265
103526
103464
102790
101336
99167.7
96612.1
94018.4
91669.5
89808.2
88544.6
87909
102363
102553
102890
103268
103528
103460
102778
101275
99147.5
96602.6
94015.8
91666.7
89804.5
88540.6
87904.5
102363
102552
102888
103264
103522
103458
102782
101326
99154.8
96596.2
94002.3
91654.6
89795.4
88533
87898.1
102360
102548
102882
103258
103523
103454
102781
101324
99145.8
96573.1
93965.1
91628.4
89780.7
88523.6
87891.2
102356
102542
102873
103247
103515
103456
102793
101333
99141.1
96559
93938.8
91605
89765.8
88515
87885.1
102351
102536
102865
103239
103509
103469
102809
101350
99163.4
96550.5
93916.3
91585.5
89753.7
88508
87880.3
102347
102531
102858
103231
103505
103475
102822
101367
99170.8
96544.6
93900.7
91571.7
89745.1
88503
87877
102344
102528
102854
103226
103501
103476
102828
101373
99171.5
96538.1
93890.5
91563.2
89739.8
88500
87875
102343
102526
102851
103224
103499
103476
102830
101375
99171.8
96535.3
93886.1
91559.5
89737.4
88498.6
87874.1
101935
102228
102786
103525
104276
104828
104598
102990
100118
96595.3
93216.8
90441.9
88383.3
87032.8
86366.1
101938
102231
102790
103532
104282
104832
104598
102991
100123
96606.2
93227.8
90448.9
88386.4
87033.7
86366
101942
102238
102800
103545
104297
104840
104594
102994
100132
96631.8
93254.1
90464.3
88392.7
87035.2
86365.5
101949
102247
102814
103563
104316
104840
104567
102982
100108
96655.9
93296.1
90489.2
88401.6
87036.6
86364.1
101957
102258
102831
103586
104334
104814
104492
102893
100044
96697.9
93344.2
90518.2
88412.3
87037.2
86361.2
101966
102271
102851
103611
104364
104798
104458
102880
100046
96730.7
93403.1
90550.4
88421.4
87036.4
86356.8
101972
102280
102863
103631
104358
104807
104441
102862
100038
96748.2
93523.7
90584.1
88429.8
87033.5
86350.9
101976
102285
102869
103638
104369
104819
104460
102860
100013
96733.1
93514.2
90580.5
88425.6
87028.9
86345.3
101976
102283
102865
103630
104354
104798
104427
102842
100013
96721.2
93497.9
90563.4
88412.8
87019
86337.4
101974
102279
102857
103612
104360
104786
104434
102846
100003
96688.3
93362.9
90516
88392.3
87010.6
86332.6
101969
102269
102839
103589
104330
104800
104465
102855
99996.4
96649.9
93297.9
90476.7
88375.7
87004.1
86329.9
101965
102261
102825
103570
104317
104829
104546
102950
100067
96611.5
93251.9
90447.4
88363
87000.2
86328.9
101961
102255
102814
103555
104301
104836
104580
102971
100100
96595.7
93216.2
90426.3
88355.3
86998.4
86329.1
101959
102251
102807
103545
104290
104832
104591
102977
100102
96579.7
93197.5
90415.7
88351.4
86997.8
86329.8
101958
102249
102804
103540
104285
104830
104595
102980
100102
96574.3
93190.8
90411.6
88350
86997.8
86330.3
101176
101628
102531
103857
105473
107094
108038
106124
101765
96375.8
91755.5
88354.9
86015.7
84553.1
83852.2
101178
101631
102536
103866
105485
107105
108032
106128
101772
96395
91772.3
88362.5
86017.4
84552.2
83850.4
101181
101637
102548
103888
105515
107131
108034
106153
101819
96460.8
91817.2
88380.5
86021
84550.1
83846.3
101187
101647
102569
103926
105559
107176
107872
106174
101741
96589
91911.9
88412.6
86025.7
84545.8
83839.2
101194
101660
102596
103965
105613
107124
107101
105858
102527
96760.3
92024.5
88459.2
86029.8
84537.8
83828.5
101202
101676
102635
104050
105711
106342
106975
105830
102570
98008.2
92173.5
88511.2
86035
84526.6
83815.5
101208
101689
102660
104083
105054
106377
106937
105785
102531
98025.4
93459.2
88541.6
86026.4
84512.9
83800.6
101213
101698
102674
104096
105058
106398
106954
105674
102507
98018.4
93428.1
88534.1
86031.8
84511.9
83791.7
101214
101693
102661
104081
105049
106380
106920
105735
102489
97991.4
93413.7
88511.5
86003.3
84493.4
83784.5
101215
101689
102645
104054
105706
106336
106919
105753
102478
97961.2
92102.3
88458.5
85994.9
84492.8
83785.1
101210
101676
102608
103971
105609
107109
107043
105793
102486
96682.7
91950.3
88398.5
85980.8
84496.3
83790.3
101209
101668
102587
103939
105562
107165
107846
106126
101675
96521.1
91848.9
88357.4
85977.2
84501.8
83797.6
101208
101663
102570
103904
105523
107131
108018
106124
101776
96414.4
91770
88334.9
85977.2
84507.8
83804.8
101208
101660
102562
103887
105500
107113
108030
106117
101755
96371.3
91742.3
88327.7
85979.6
84512.9
83810.5
101208
101658
102558
103880
105491
107106
108041
106121
101758
96362.9
91734.1
88325.8
85981.4
84515.8
83813.6
99847.6
100473
101774
103842
106739
110367
114261
111591
104250
95149.2
88823.1
84922.3
82468.6
81023
80359.4
99846.6
100474
101778
103853
106758
110391
114259
111601
104279
95188.4
88844.2
84925.8
82465.6
81018.7
80354.8
99845.2
100476
101788
103880
106812
110459
114285
111634
104373
95280.3
88894.8
84932.8
82458.9
81009.3
80344.7
99844.1
100481
101811
103959
106993
110647
111969
111743
105996
95793
89094.1
84964.7
82447.4
80993.3
80327.9
99843.1
100486
101842
104027
107082
109137
111943
111686
106103
98093.2
89273.6
84983.5
82424.2
80964.1
80302.9
99845.8
100505
101910
104245
106222
109329
111968
111565
106061
98325.3
91493.2
85063.9
82383.5
80936.9
80274.3
99845.4
100505
101916
103653
106293
109428
111022
110859
106375
99315.2
91664.4
86892
82280.3
80882.1
80240.4
99853
100521
101989
103666
106340
109460
111030
110812
106359
99314.8
91700
86929
82386.1
80871.3
80232.3
99853.1
100510
101920
103652
106324
109444
110995
110790
106293
99265.9
91646.6
86893.1
82246.5
80858.5
80220.2
99865.5
100526
101926
104254
106220
109326
111043
110786
106259
98249.4
91465.4
84980.2
82328.9
80893.1
80237
99867.9
100509
101861
104039
107082
109170
111870
111462
105872
98065.8
89146.4
84889.9
82357.2
80912.2
80256.5
99877.7
100514
101840
103981
107004
110637
111909
111662
105994
95679.4
89001.5
84891.9
82386.1
80940
80278.8
99883.6
100513
101821
103907
106829
110466
114274
111633
104324
95222.6
88836.9
84878.7
82408.4
80961.1
80297.6
99889.1
100515
101816
103887
106785
110410
114265
111605
104274
95177
88820.1
84891.9
82426
80976.2
80311.1
99892
100516
101814
103878
106769
110392
114277
111606
104267
95161.3
88815
84898.4
82435.2
80984.2
80318.3
97696.6
98448
100070
102848
107269
114216
119856
125304
111735
90611.6
83220.9
79602.1
77493.2
76376.3
75901.9
97690.6
98442.9
100068
102855
107292
114243
119867
125309
111740
90633.5
83226.2
79590.3
77481.8
76367.6
75894.3
97678.7
98432.6
100063
102856
107321
114311
119886
125322
111742
90634.9
83203.2
79545.4
77452.1
76346.9
75877.3
97664
98425.1
100074
102929
107729
112147
119993
125452
111774
95155.8
83321.9
79441.5
77403
76314.4
75848.9
97641.8
98400.1
100056
103009
106507
112439
120320
123055
113202
95946.4
86614.4
79319.5
77262.7
76244.8
75804.2
97629.6
98383.2
100121
102599
106627
111504
118542
121994
113261
98277.8
86767.8
81706.2
77106.8
76152.4
75750.6
97612.8
98354.1
100118
102647
106778
111546
117618
121955
113712
99213.2
88467.7
81714.6
76965.1
76061.7
75695.9
97610.7
98339.4
100126
102715
106130
111034
117620
121871
113566
99134.8
88386.3
81672
78882
76005.1
75676.9
97625.6
98367.6
100132
102692
106124
111508
117597
121811
113453
99023.7
88311.9
81595.5
76918.9
76031
75670.2
97657.7
98411.3
100145
102600
106748
111539
117546
121813
113438
98926.4
88310.1
81613.8
77029.5
76100.1
75706.3
97678.4
98433.4
100087
103038
106527
112490
118374
122809
112936
97805.9
86530.8
79181
77175.2
76180
75748.8
97711.7
98473.4
100120
102966
107756
112194
120006
125376
111632
95165.4
83196.2
79348.5
77327.5
76251.6
75791.8
97732.9
98484.6
100112
102900
107356
114330
119888
125291
111694
90576.5
83141.4
79486.3
77396.6
76293.2
75824.5
97750.1
98501.4
100124
102906
107337
114276
119880
125321
111762
90656.6
83217.2
79562
77442.6
76322.7
75847.2
97758.4
98508.5
100128
102901
107316
114254
119893
125352
111811
90692.2
83242.3
79591.7
77464.1
76337.2
75858.7
94499.6
95228.2
96854
99808
104837
111719
128261
158242
115982
83071
72955.2
71651.4
70920
70688.3
70627.1
94486.6
95214.7
96838.9
99792.1
104829
111714
128245
158230
115901
83029.8
72913
71610.5
70900.6
70677.2
70618.8
94457
95178.3
96793.3
99721.8
104722
111697
128175
158194
115837
83005.5
72797
71521.8
70852.2
70647.9
70599.1
94418.5
95133.6
96738.9
99515.2
104103
112074
128198
158087
115665
83140.1
76180
71185.1
70756.7
70594.6
70564.8
94356.7
95047.3
96557.5
99586
104133
111192
125264
157999
116974
87210.3
75914.1
73355.7
70484.2
70497.3
70506.9
94297.5
94911.8
97026.3
99648.6
103879
111170
123855
153023
121894
89370
78174.3
73175.6
72111.6
70356.2
70438.7
94268.8
94876.7
97027.4
99649.1
103906
110740
123754
152928
122086
89405.6
79385.1
74648.6
72008.3
70312
70394.9
94249.5
94856.1
97090
99677.7
103909
110713
123703
152806
121457
89048.6
79221.3
74548.4
71968.1
70302.6
70354.8
94287
94895
97055.1
99705
103935
110717
123695
152730
121049
88718
79076.5
74485
71905.3
70278.1
70364.3
94338.1
94953.2
97071.4
99653.3
103939
110747
123739
152747
120959
88599.5
79018
74487.4
71965.7
70299.8
70388.8
94409.9
95099.3
96608.7
99628.8
104172
111226
123855
152872
121060
88639.8
77910
73069.5
70382.2
70422.4
70443.2
94484.7
95200
96807.5
99575.3
104041
112032
125280
157935
115645
87041.6
75885
71070.7
70671.4
70524.7
70500.7
94533.1
95253.8
96865.5
99793.4
104787
111746
128213
158108
115722
82968.7
72746.4
71461.8
70792.7
70589.1
70541.1
94568.1
95295.4
96918.3
99867.3
104899
111788
128265
158227
115913
83103.6
72927.8
71593.6
70863.7
70630.6
70568.2
94584
95311.7
96935.3
99885.2
104908
111777
128305
158288
116166
83246.7
73024.6
71660.2
70896.8
70649.3
70581.5
90190.7
90639.6
91638.3
93462.8
96452.9
103204
110648
108221
25228.9
53090
58231.8
61264.7
63194.3
64415.9
64975
90171.3
90617.2
91610.7
93423.2
96418.7
103167
110621
108141
23946.3
52989.4
58145.2
61228.1
63185.4
64411.5
64973
90127.6
90560.5
91541.6
93357.5
96304.8
103067
110532
108067
23756
52951.3
58056.3
61214
63172.3
64401.1
64968
90063.5
90466.6
91421.4
93071.4
97573.9
102652
110283
107945
23550.4
53119.6
59494.9
61289.3
63163.1
64380.5
64959.1
89971.2
90337.6
91199.5
94199.2
97321.7
103048
111040
107739
26762.9
56772.7
61070.3
62541.9
63202.1
64369.5
64939.3
89864.8
90210
92330.9
94081.9
97780
103268
110834
107415
27173.5
57480.9
62097.7
62663.7
64226.3
64404.8
64917.6
89836.6
90171.2
92313.2
94006.7
98022.2
103198
110723
107263
34385.1
57850.6
62224.2
63542.4
64175.8
64425
64919.3
89827.9
90149.7
92289.8
94645.3
98022.5
103172
110687
107227
25275.5
57111.7
62088
63968.6
64200.6
64445.5
64894.8
89862.5
90197.7
92306.9
94650.1
98036.8
103188
110710
107312
23789.9
56562
61895.3
63888.1
64130.4
64390.3
64885.4
89920.3
90264.2
92366.1
94064.8
98058.7
103243
110785
107437
23653.4
56387.7
61753.2
63358.9
64085.6
64341.7
64862.8
90046
90416.4
91281.4
94199.6
97864.3
103335
110920
107597
23900.2
56346.7
61590.5
62359.9
63096.1
64290.1
64869.8
90156.4
90560
91514.7
93169.4
97560.2
102425
110080
107929
24330.5
54691
59193.2
61174.4
63076.8
64306.5
64889.5
90230.2
90664.1
91645.9
93457.5
96404.8
102934
110446
108041
23642.6
52906.1
58028.1
61167.9
63113.6
64338.7
64904.7
90280.7
90727
91720.6
93532.2
96524.2
103219
110634
108142
23721.7
53106
58202.9
61223.4
63151
64362.5
64917.9
90302.9
90751.7
91749.8
93571.5
96556.1
103280
110698
108187
25156.8
53421.5
58359.4
61294
63176.6
64375.4
64925.4
85035.5
84960.7
84793.1
84545.6
84594.8
88731.3
92531.6
105696
6003.15
31962.4
44618
51446.2
55940.5
58578.6
59767
85015.5
84937
84765.6
84510.8
84572.2
88687
92491.8
105499
2519.79
31955
44558.1
51455.4
55955.6
58589.8
59778.2
84974.3
84886.9
84708.2
84488.4
84527.1
88577.9
92386.5
105412
2860.96
32017.1
44610.6
51529.9
55999.8
58622.5
59804.6
84917.4
84801.3
84620.1
84545
87277.8
88505.2
92164.7
105290
2352.22
32246.5
44854.8
51810.5
56100.5
58683.4
59850.5
84845.2
84705.8
84577.4
86520.4
87290.3
90316
93209.1
105282
2259.14
32086.9
45539.1
52563.3
56269.4
58784.9
59910.3
84770.3
84699.5
86152.8
86439.9
88511.1
91084.7
93072.5
104929
7585.59
32537.5
45950.9
52614.2
56902.4
58883.7
59969.9
84762.2
84699.8
86068.1
86415.3
89145
90999.2
92990
104854
2279.95
32580.5
46045.1
52972.8
56911.3
58919.2
59999.1
84766
84697
86037.5
87406.5
89118.3
90974.9
92969.1
104805
4805.68
32549.9
46005.5
53158.1
56881.2
58933
59987.7
84800.4
84740.1
86061.9
87420
89143.3
91002.7
92999.5
104863
9493.33
32466
45902.3
53100.7
56840.9
58879.5
59965.6
84842.4
84771.4
86136
86517.9
89201.9
91078
93074.5
104934
2354.03
32271.7
45780.2
52835.6
56820.5
58813.9
59909.7
84947.5
84814.9
84689.2
86553.4
88651.5
91211.5
93191.9
105041
2356.42
32121.3
45645.5
52392.3
56167
58702.4
59835.9
85041.5
84929.8
84758.4
84681.8
87448
88772.9
92442.7
105420
2378.56
32057.4
44968.1
51721.5
56016.4
58605.3
59775.2
85109.6
85025.5
84853.9
84643
84678.9
88669.8
92383.7
105405
2400.54
32129.3
44603
51491.3
55939.9
58554.9
59734.3
85158.1
85081.7
84912.9
84659.1
84720.5
88766.1
92537.6
105523
3943.91
32133.3
44605.1
51447.2
55916.1
58533.6
59715
85180.6
85106.9
84940.5
84691.2
84735.6
88838.3
92610.9
105587
4951.62
32180.9
44709.4
51467.5
55915.7
58530
59708.6
79730.2
79067.3
77699.3
75543
75251.9
74322.6
76982.9
3901.9
24319.9
37377.8
45437
51060.2
54449.5
56032.2
79714.3
79048.1
77677.5
75519.3
75215.1
74268.3
76918.1
2202.91
24162.1
37361
45477
51088.6
54473.6
56054.7
79687.7
79020.7
77637
75478
75211
74211.9
76789.4
2219.95
23981.2
37504
45567.6
51156.9
54534.5
56104
79664.7
78991.7
77590.2
75625.6
75492.7
74110.9
76589.7
2236.24
24158.7
36585.7
45875
51295.4
54641.1
56184
79653.3
78976.9
77721
77671
76047.5
76170.5
77246
2293.54
21991.1
36167.9
45551.5
51485.5
54787.7
56284.4
79651.3
79110.4
79201.4
77929.1
77397.7
77127.2
77178.8
2266.51
22024.6
35990.2
45654.8
51361.8
54862.3
56385.8
79673.3
79145.9
79158.8
78027.8
78190.7
77153.1
77146.9
2301.38
22019.9
36078.3
45447
51438.3
54881.6
56414.7
79690.5
79170.5
79163
78924.3
78304.2
77180.4
77154.6
2292.54
22153.7
36102
45348
51419.7
54888.7
56404.2
79726.4
79204.1
79192
78972.9
78346.2
77227.8
77206.6
2344.58
22149.7
36053.9
45305.6
51386.2
54841.8
56379.3
79746
79205.9
79253
78139.3
78305.2
77277.7
77279.6
2343.33
22011
35950.8
45339.6
51340.5
54790.7
56318.6
79788
79124.9
77882.6
77823.7
77527.9
77292
77351.6
2319.11
21901.1
35837.8
45465.3
51385.3
54698.9
56203.6
79824.7
79160.1
77783
75825.2
75746.5
74467.4
76535
2330.56
22697.2
36654.3
45789.6
51206.6
54555
56099.4
79860.4
79200.1
77829.1
75690.3
75419.4
74376.1
76875.7
2354.86
24054
37482.7
45517.5
51085.2
54455.2
56021.5
79893.8
79232.3
77868.7
75713.8
75438.3
74430.1
77011
2372.88
24317.2
37367.2
45443.4
51029.7
54401.2
55976.4
79911.6
79251.9
77888.4
75731.2
75410.2
74456.3
77071.3
2394.32
24336.4
37390.9
45412.9
51008.6
54381.7
55956.9
75190.3
73971.1
71427.8
67028.5
64796.5
57503
53619.5
3536.96
2175.18
23033.8
35160.3
43528.2
49305.9
52835.2
54530.4
75174.1
73949.9
71395.8
66978.9
64736
57389.2
53423.7
2765.86
2200.55
22825.9
35137.9
43562.9
49329.3
52861.8
54555.1
75149.5
73923.4
71340.4
66868.9
64652.3
57223.6
53177.4
2515.32
2217.08
19548.4
35344.5
43638.1
49395.4
52923.6
54606.2
75136
73913.2
71247.1
66805.4
64570.9
57044
53070.1
2449.4
2250.86
20033.9
33004.2
43806.5
49510.8
53025.9
54685.3
75151.6
73911.2
71202
69790.8
64367.1
59901.2
54959.7
2338.83
2281
18095.2
31904.3
42295.9
49630.8
53170.2
54778.7
75182.1
73954.1
73174.9
69671.7
66306.9
61199.3
55033.2
2758.27
2277.08
18136.1
31398.5
42370.4
48641.7
53232.9
54882.2
75208.8
73976.2
73180.6
69583.3
67172.8
61202.1
55000.7
2524.04
2289.48
18227.3
31484.6
41609
48703.1
53243
54902.8
75233.3
74013
73197.2
70994.8
67216.4
61260.2
55027.4
2441.35
2291.39
18475
31514.6
41227.2
48702.3
53241.9
54894.2
75278.5
74056.1
73246.9
71066.2
67293.4
61367.8
55150.4
2377.01
2311.07
18257.4
31439.3
41179.8
48668
53197.7
54862.9
75306.3
74093.8
73327.9
69791
67392.4
61459.9
55268.3
2801.71
2296.47
18063.3
31321.1
41492.9
48605.1
53151.4
54804.7
75322.5
74099.8
71433.4
70006.8
66596.3
61490.7
55293.3
2463.18
2288.87
17965.3
31232.7
42182.7
49513.7
53067.4
54686.6
75335
74125
71495.2
67094.1
64791.4
57339.5
53404
2552.72
2361.18
18848.9
32971.7
43696.9
49402.5
52924.1
54584.9
75361.6
74147
71585
67143.8
64862.8
57452
53457.5
2604.07
2365.85
19776.4
35286.2
43556.2
49300.8
52824.3
54504.5
75391.7
74175.7
71637.1
67233.8
64973.3
57570.9
53545.1
2851.73
2379.24
22733.7
35101.6
43490.4
49242
52765.4
54454.4
75408.9
74195.7
71662.8
67268.2
65009.6
57642.8
53594.8
2591.12
2405.04
22980
35120.4
43455.6
49220.5
52740.4
54430.7
72258.9
70587.1
67055.6
60874.3
50338.3
41028.9
17130.9
2236.2
2181.34
24644.8
36652.2
44869.4
50453.8
53841.8
55465
72233.2
70553.2
66995.4
60778.4
50186.7
40825.7
17025.7
2278.45
2204.2
24363.4
36626.5
44874.7
50464.2
53862
55485.4
72192
70505.2
66910.4
60653.1
50000.9
40414
16922.5
2282.29
2222.72
20103.5
36605.6
44934.5
50512.6
53909.2
55528.1
72152.7
70475.6
66785.9
60507.3
54538.2
40049.6
16778.9
2284.7
2252.78
20160.8
33039.2
45001.4
50584.6
53981.1
55593.6
72145.1
70466.2
66740.7
63191.4
54484.4
43875.6
23363.4
2310.73
2271.71
17498.5
31545.8
42496.9
50662.8
54100.1
55670.4
72168.7
70462.8
68493.7
63156.5
56721.8
45720.5
24216.9
2285.48
2268.14
17655.9
30840.7
42542.6
48885
54171.8
55765
72181.7
70465.8
68548.8
63122.8
57731.4
45743.3
24167.8
2329.3
2367.38
17772.1
30909
41320
48915.9
54185
55783
72210
70507.8
68597.3
64601.2
57763.8
45870.7
24259.8
2302.05
2283.73
17841
30867.6
40681.8
48905.5
54176.3
55776.4
72268
70568.8
68665.1
64698.2
57913.7
46185.6
24627.3
2324.98
2338.49
17590.3
30730.8
40605.7
48868.8
54128.9
55734.6
72321.3
70644.2
68751.5
63413.1
58101.2
46426.1
25160.2
2237.72
2300.55
17378.4
30581.7
41133.2
48805
54072.7
55672.7
72353.3
70698.9
67046.6
63605.2
57158.1
46284
24647.6
2280.4
2285.74
17252.1
30497.8
42297.1
50513.7
53975.8
55561.1
72390
70734.1
67098.9
60894.7
54955.5
40568.9
18938.5
2302.01
2345.88
18385.9
32987
44855
50448.6
53855.9
55470.9
72440.8
70773
67213.8
61010
50400.6
40684.3
17177.3
2275.11
2372.44
20089.7
36495.6
44817.2
50389.4
53782.8
55400.9
72485.7
70819.7
67289.4
61105.7
50541.8
40990.9
17244
2270.61
2383.97
24256.9
36555
44764.2
50345.9
53736.1
55356.2
72510.9
70850
67337.8
61175.6
50644.5
41225.8
17296.2
2293.93
2415.42
24615.5
36552.5
44756.5
50335
53715.5
55334.8
71618
69825.5
65994
59513.1
48251.3
36996.4
4145.05
2284.09
2191.24
29734.1
41584.8
49224.5
54247.7
57209.5
58614.1
71577.4
69773
65899.4
59326.7
48047
36466.3
3786.55
2253.36
2380.93
29718.9
41495
49186.8
54239
57220.1
58628.9
71514.7
69698.4
65777.5
59074
48347.4
35070.7
5873.84
2280.23
2218.49
23123.4
41479.5
49254.5
54260.6
57254.9
58664.4
71449
69641.1
65666.1
58935.7
50787.9
34169.5
7918.08
2290.45
2246.61
23314.9
36857.6
49299.7
54310.7
57310
58722.3
71419.7
69631.6
65681.1
60588.5
50514.1
36997.6
16233.3
2255.99
2273.66
20061
34917
46055.8
54410.1
57424.8
58794
71436.5
69652.4
66668.3
60497.2
52082.4
38185.9
16236.5
2269.77
2287.18
20877.7
34140.5
46125.9
52033.1
57542
58901.1
71440.1
69653.1
66703.3
60492.9
52820.9
38172
16280.2
2287.71
2211.97
20875.5
34196.2
44524.3
52055.9
57574.6
58924.5
71474.9
69699.3
66779.5
61602.3
52871.3
38360.3
16532.8
2293.03
2287.77
20138.1
33945.5
43644.6
52047.9
57565.1
58919.3
71539.2
69774.9
66869.3
61711
53092.3
38949
18350.4
2280.92
2307.71
19761.8
33668.7
43521.5
51999.2
57508
58865.5
71610.8
69867.9
66951.1
60894.5
53359.4
39490.5
23753.8
2790.66
2303.91
19506.3
33442.2
44222.7
51921.3
57424.3
58788.3
71657.8
69906.6
66058.8
61084.8
52718.1
39160.3
17420
2288.25
2301.21
19329
33334.6
45797.9
54237
57277.3
58664.4
71715.4
69942.2
66049.2
59438.5
51219.3
35310.7
16185.9
2297.73
2322.72
20783.4
36687
49134.6
54150.1
57158.3
58572.5
71790.2
70003
66139.5
59519
48866.9
34983.2
6421.13
2286.88
2382.28
23121.8
41334.1
49114.9
54108.7
57097.3
58506
71854.4
70072.4
66244.1
59724.4
48508.8
36870.3
4175.51
2269.64
2432.38
29649.5
41374.8
49044.7
54088.4
57059.9
58465.5
71892.8
70118.7
66322
59878.7
48624.7
37423.9
3882.8
2286.77
2438.5
29583.8
41380.3
49067.9
54091.7
57045.8
58447.8
73572.2
72128.1
69025.4
64063
53908.7
42454.9
2211.09
2281.25
22211
44434.4
50983.6
56849.9
60493.6
62590.5
63595.5
73515.8
72051.1
68891
63760.3
53470.2
41606.5
2230.37
2287.39
22535
44017.3
50780.3
56764.8
60460.8
62591.9
63605.9
73431.1
71941.9
68720.8
63225.7
54798.6
39574.2
8948.92
2351.44
4019.18
33410.1
50804.4
56724.3
60437.6
62619.4
63638.5
73341.8
71830.6
68517.3
62931.4
54263.1
38405.5
11198.4
2299.46
2237.44
31869.8
45083.1
56741.9
60456
62671.6
63699
73291.1
71777.5
68465
62898.2
53485.3
39072.1
16916.6
2281.62
2252.44
26830.8
42438.8
52960.8
60643.2
62799.9
63784.9
73293.8
71807.6
68398.6
62636.8
53816.6
39301.7
16691.8
2252.88
2502.74
30690.9
41583.2
53061
57869.9
63009.7
63917.4
73286.4
71798
68365.7
62564.5
54003.2
39033.1
16524.4
2367.15
23712
31005.4
41806.4
51232.5
57917.4
63072.9
63954.1
73324.3
71845.5
68429.4
63007.4
53995.9
39087.7
16687
2306.1
2296.39
27482.1
41519.9
50251.3
57965.7
63072.8
63952.8
73390
71928.7
68538
63140.6
54228.9
39486.9
17029.6
2280.76
2313.17
26395
41102.7
50116.2
57902.4
63000.1
63886.7
73476.8
72040.1
68663.6
63075.3
54606.5
40047.4
17265.2
2284.34
2339.47
25758.7
40691.6
50930.2
57769.7
62876.2
63786.9
73540
72077.7
68896.5
63380
54678
40503.4
18596
6911.91
2331.73
25435.8
40497.8
52795.4
60471.2
62633.7
63627.3
73616.9
72155.3
68955.3
63573.7
54693.2
39313.2
16930.6
2263.54
2352.39
27616.4
44853.2
56596.6
60281.7
62491
63515
73712.6
72263.5
69127.6
63763.3
55537
39849.7
10942.1
2336.9
2501.72
32290.7
50676.4
56576.1
60255.3
62424.9
63441.3
73796.1
72363.4
69269.4
64228.9
54003.7
42239.4
2389.66
2318.39
21879.1
43961.1
50611.8
56600.4
60272.3
62389.9
63400.5
73848.7
72431.5
69381.5
64501.4
54326.5
43028.8
2412.75
2327.45
19449.3
43955
50624.6
56647.3
60289.2
62380.4
63384.9
77738.2
77020.8
75463.9
73909.7
69658.2
71172
81827.4
48551.4
67695.4
66444.5
65368.5
67560.3
68655.2
69435.3
69863.6
77668.6
76912.7
75271.2
73368.8
68491.6
67256.6
68608
19061.4
61529.8
64225.6
64798.5
67339.9
68586.8
69428.3
69871.3
77563.8
76759.4
75071.3
72293.1
68882.4
56621
39620.4
19975.9
33335.1
52969.2
64639.8
66994.2
68514
69446.7
69900.8
77449
76591
74722.1
71790.3
64451.3
53234.4
29031.6
2342.76
18613.1
49879.1
58597
66923.7
68487.9
69501
69964.9
77373.9
76481.8
74590.6
69845.2
63347.8
50830
26378.2
2213.74
8570.12
40082.1
54921.2
63068.6
68695.9
69628
70065
77363.7
76505
73320.3
69396.7
62150
49317.2
26224.7
7890.48
3734.13
38213.5
53048
63237.4
65979.3
69840.6
70215.4
77342.7
76483.1
73169.9
69292.6
61603.4
48543.6
23845.2
2314.57
2457.54
40192
53824
61351
66134.6
69917.5
70262.3
77376.1
76527.5
73217.8
68872.2
61527.2
48397.2
23481.8
2245.69
28125.4
44788.6
54794.8
60464.1
66290.9
69925.2
70262.1
77436.1
76604.6
73329.2
69032.4
61804.2
48870
23920.3
2392.11
11104.7
43058.2
54590.6
60405.5
66217.1
69833.6
70183.5
77529.7
76721.6
73491.6
69887.8
62352.4
49798.5
24754.7
2275.42
6583.39
40953.6
53864.2
61269.7
65983
69681.4
70064.1
77600.2
76772.4
75042.8
70190.8
63339.1
51115.8
26480.3
2311.24
7893.49
39883.2
53437.4
63193.9
68506.7
69435.3
69867.3
77696.6
76902.1
75188.7
72557
64945.1
54379.2
28566.6
2316.54
10143.9
43822.8
58525.1
66773.8
68287.3
69277.3
69734.3
77814.5
77060.5
75490.1
72921.7
69876.5
56063
33540.3
10093.4
31760.2
52188.3
64600.7
66832.1
68289
69203.5
69653.1
77915.8
77200.5
75647
73906.8
69238.7
68264.1
72327
22065.4
63246.2
64695.2
64728
67186.1
68354
69175.3
69613
77981.1
77298.9
75808.1
74387.3
70190.5
70824.4
83553.3
34438.1
66605.1
65975.4
64990.3
67337
68393.7
69171
69598.6
83104.6
83244.4
83393.6
85479.5
88343.6
95072.5
128281
138308
110970
88558.5
81456.9
79074.3
77393.3
76824
76628.3
83039
83130.5
83231.5
85065.2
87859.9
95084
136204
155854
109994
87294.8
80957.6
78810.6
77327.6
76818.7
76639.7
82935.6
82935
83071.8
83640.6
86252.3
85942.9
111401
133726
106983
83176.6
80054.6
78303.2
77275.2
76834.4
76673
82815.2
82752.2
82662.2
83057.6
80137.9
81518.4
91501.5
95926.2
87899.5
79905.6
76481.5
78057.5
77260.6
76900.3
76743
82728.3
82618.8
82407.3
79913.8
78899.1
74453.6
62712.5
2315.32
47888.1
68100.1
73127
75387.3
77352.2
77020.3
76845
82708
82516.9
80439
79463.2
76217.1
70590.7
53664.4
2194.47
24884.9
62375.4
70994.5
75550.8
75435.5
77110.4
76975.2
82676
82477.4
80329.2
79314.8
74856.8
69504.6
52255.2
2287.64
2922.88
65427.3
72060.3
74247.8
75639.6
77160.4
77018.1
82696.9
82507.4
80369.5
78084.2
74867.1
69305.6
51257.8
2157.46
89019.1
74038.1
73631
73772.2
75709.1
77157.5
77011
82737.2
82557.4
80457.9
78236.8
75194.6
70167.1
53219.6
2097.84
51075.8
71928
73610.2
73735.8
75624.1
77051.3
76915.5
82818.9
82670.1
80597.9
79813.4
75763.3
71838.2
58130.5
2189.04
39016.1
69512
72756.1
74184.8
75417.6
76911.7
76782.9
82880.7
82826
82758.1
80220.7
77613.9
73890.5
64388.3
2350.99
50729.8
69310.3
72244.1
75353
77055.9
76747
76583.2
82983.1
82978.8
83047.1
83673.6
80975.9
82756.7
79185.8
26210.3
62758.9
74766.9
76357.1
77752
76957.8
76595.1
76444.7
83104.8
83154.1
83412.3
84224.9
87251.3
86456.7
109849
146704
107817
82857.1
79950.5
78050.4
76964.7
76517.6
76356.7
83204.4
83339.9
83534.9
85559.3
88855.3
95748.1
138217
156132
111901
87732
80949.9
78622.1
77025.5
76499.3
76314.1
83267.9
83451.8
83682.1
85957.9
89536.1
95441.6
133814
149042
112565
88337.7
81238.3
78808.4
77061
76494.4
76296
88371.8
89089.7
90207.2
93424.6
98836.3
101739
116664
121206
111041
98549.3
92487.4
87989.3
84954.4
83594.2
82952.7
88350.4
89048
90244.8
93624.4
99697.7
103740
122307
130974
111424
99628.3
92788.7
88011.5
85000.6
83626
82986.8
88303.7
88895
90289.3
92964.4
98601.8
103993
117242
137285
115597
101822
92376.5
87848.1
85079.5
83675.5
83051.6
88227.4
88783.1
90045.8
92835.4
94443.7
103888
122500
149297
126711
102605
92156
87830.1
85192.7
83780.5
83150.1
88146.7
88641.1
89726.4
90060.8
93729.7
99676.3
117356
181621
133452
102292
91402.3
86901.7
85230.7
83888
83252.8
88094.6
88427.9
88043.1
89557
91370.7
96821.5
116797
196569
141944
102580
91264.5
87119.2
84439.6
83880.2
83360.7
88054.8
88360.1
88010.9
89314
90165.2
96106.5
112637
168593
163682
104823
92294.7
86907.8
84621.6
83918.7
83402.3
88054.8
88354.1
88014
88321.5
90035
96040.9
112951
185555
155579
106160
93058.3
86879.4
84591.2
83894.1
83386.8
88057.6
88363.7
88050.5
88364.6
90184.1
96516
114441
186874
153291
105794
92653.2
86675.7
84442.9
83760
83261.9
88104.1
88446.2
88110.3
89504.9
90517.4
97335.7
117307
183387
133005
102478
91374.1
86329.3
84200.5
83589.3
83102.3
88166.5
88673.9
89814.5
90045.5
91877.5
98105.4
118450
153676
125603
100363
90333.3
86320.8
84744.9
83498.3
82907.5
88252.5
88824.5
90145.7
93023.2
94583.4
104117
120455
164659
126349
100735
90997.6
87183.8
84694.2
83352.3
82761.9
88329.7
88943
90384.9
93138.2
98939.2
104364
118480
141168
116640
101566
91714.4
87328.2
84610.6
83252.2
82647.2
88375.5
89096.6
90348.3
93717.4
100226
103852
122356
131735
111638
99311.2
92478.8
87614.9
84572.5
83211.4
82577.2
88400.6
89152.5
90345.6
93563
99946.6
102466
118863
127074
110799
98655.2
92259.4
87576.7
84522
83176.1
82538
92558.7
93363.6
94532.8
96518
100814
100720
103581
105995
102134
99101.3
96307.4
92806
90236.8
88857.1
88101.1
92607.9
93433.7
94746
97070.6
101860
102382
105516
105811
102946
100897
97011.1
93152.7
90440.8
88960.1
88179.1
92666.6
93421.3