/*--------------------------------*- C++ -*----------------------------------*\
| =========                 |                                                 |
| \\      /  F ield         | OpenFOAM: The Open Source CFD Toolbox           |
|  \\    /   O peration     | Version:  v2012                                 |
|   \\  /    A nd           | Website:  www.openfoam.com                      |
|    \\/     M anipulation  |                                                 |
\*---------------------------------------------------------------------------*/
FoamFile
{
    version     2.0;
    format      ascii;
    class       volScalarField;
    location    "0.046";
    object      p;
}
// * * * * * * * * * * * * * * * * * * * * * * * * * * * * * * * * * * * * * //

dimensions      [1 -1 -2 0 0 0 0];


internalField   nonuniform List<scalar> 
449343
(
103370
103499
103710
103907
103982
103694
102869
101431
99436.8
97098.2
94711
92552.7
90817.5
89616.6
89005.1
103352
103480
103692
103888
103963
103673
102847
101409
99415.8
97079.1
94693.2
92534.9
90798.9
89597.1
88985.2
103334
103463
103675
103870
103943
103650
102821
101383
99392.4
97060
94677.2
92519.1
90781.5
89578
88965.2
103317
103446
103658
103853
103923
103623
102791
101352
99365.2
97039
94662.3
92505.3
90765.5
89559.6
88945.3
103300
103429
103642
103835
103901
103594
102758
101318
99336.6
97017.9
94649.1
92493.4
90750.9
89541.8
88925.8
103282
103412
103625
103817
103880
103566
102727
101287
99310.5
97000
94637.5
92482.9
90737.1
89524.6
88906.7
103263
103393
103606
103798
103857
103541
102699
101259
99287.8
96984.7
94624.6
92471.9
90722.8
89507.3
88887.9
103242
103372
103586
103777
103836
103518
102673
101231
99260.9
96963.8
94607.2
92455.2
90705.1
89488.6
88868.8
103218
103349
103562
103754
103814
103498
102657
101218
99247.4
96945
94585.3
92432.9
90684
89468.5
88849.2
103193
103323
103537
103730
103794
103481
102643
101205
99229.7
96920.3
94558.7
92404.8
90659.4
89447.1
88829.4
103166
103296
103510
103704
103772
103467
102633
101195
99215.8
96898.7
94531.2
92376.4
90634.4
89425.7
88809.9
103140
103270
103483
103679
103751
103454
102625
101189
99204.4
96880.4
94505.3
92349.4
90610.3
89404.8
88790.8
103115
103244
103457
103655
103730
103440
102614
101180
99191.9
96862.1
94481
92324.3
90587.5
89384.5
88771.9
103091
103220
103433
103632
103709
103423
102600
101166
99175.7
96841.7
94457.9
92301.1
90566
89364.8
88753.1
103069
103198
103411
103610
103688
103404
102582
101148
99157.2
96821.5
94436.5
92279.8
90545.5
89345.2
88734
103227
103404
103717
104069
104321
104258
103566
102063
99811.7
97130.8
94442.5
92084.1
90238.6
88984.6
88352.5
103208
103385
103700
104051
104303
104237
103544
102040
99790.9
97112.9
94425.9
92066.7
90219.7
88964.5
88331.9
103191
103368
103683
104036
104286
104214
103517
102013
99768.5
97097.5
94413.7
92052.4
90202
88944.3
88310.6
103174
103352
103669
104021
104267
104185
103481
101972
99736.8
97078.6
94404.7
92041.5
90185.7
88924.3
88288.9
103157
103337
103655
104006
104249
104149
103440
101931
99689.4
97060.5
94400.6
92034.3
90171.3
88904.9
88267.4
103139
103321
103641
103993
104233
104121
103403
101895
99665.3
97045.9
94398.1
92029.7
90158.5
88886.3
88246.4
103121
103303
103625
103977
104209
104100
103376
101867
99643.1
97039.8
94406.3
92027.6
90145.6
88868.5
88226.4
103099
103282
103604
103958
104190
104077
103346
101791
99609.4
97016.1
94390.1
92012.1
90127.8
88849.9
88207
103075
103258
103580
103933
104165
104057
103334
101825
99602.7
97000
94367
91988.5
90106.7
88829.7
88187.8
103049
103231
103552
103905
104146
104036
103319
101813
99584.4
96966.2
94319.3
91951.6
90080.9
88808.9
88169.2
103022
103202
103521
103875
104119
104021
103315
101808
99568.7
96941.7
94283.1
91917.6
90055.1
88789
88151.6
102995
103174
103492
103846
104094
104015
103314
101809
99576.2
96920.3
94248.1
91886.1
90030.9
88769.9
88134.6
102969
103148
103464
103818
104071
104003
103309
101810
99568.3
96900.2
94218.2
91858.2
90008.5
88751.2
88117.7
102946
103123
103439
103793
104047
103986
103296
101796
99551.2
96876.1
94191.3
91833.5
89987.4
88732.7
88100.3
102924
103101
103416
103771
104025
103966
103279
101779
99532.5
96854.8
94168.7
91811.8
89967.3
88713.7
88081.9
102859
103145
103689
104406
105128
105637
105342
103671
100737
97159.5
93732.4
90920.4
88835.8
87468.8
86794
102840
103127
103672
104391
105112
105618
105319
103649
100718
97145.1
93718.7
90903.5
88815.9
87447.2
86771.7
102822
103110
103659
104380
105102
105599
105287
103622
100696
97140.5
93715.9
90891.7
88796.4
87424.1
86747.2
102804
103095
103648
104373
105094
105566
105231
103578
100638
97129.9
93726.4
90887.4
88778.4
87400
86721
102787
103081
103640
104370
105084
105515
105124
103459
100540
97141.7
93745
90888.7
88763.1
87376
86694.3
102770
103068
103635
104368
105088
105471
105068
103420
100515
97148.1
93777.8
90897.3
88749.8
87353.4
86668.4
102751
103052
103621
104362
105059
105457
105033
103384
100489
97147.3
93879
90913.3
88740.2
87332.6
86644.7
102730
103032
103602
104346
105047
105447
105033
103392
100455
97124.6
93861.7
90899.1
88723.7
87314.7
86624.8
102705
103006
103575
104317
105014
105413
104990
103343
100448
97107.1
93839.3
90874.1
88701.3
87293.8
86606.3
102678
102976
103543
104278
104999
105384
104983
103337
100434
97068.6
93699.1
90819.4
88672.4
87276.3
86591.4
102649
102944
103504
104235
104952
105385
104998
103336
100419
97023.6
93628.1
90772.6
88647.5
87260.6
86579
102622
102913
103468
104195
104918
105394
105063
103415
100478
96972.6
93571.2
90733.1
88624.6
87246.3
86567.5
102596
102885
103435
104159
104884
105386
105078
103419
100497
96944.9
93522.1
90698.9
88604.2
87232
86555.2
102572
102860
103407
104128
104853
105363
105070
103405
100479
96910
93485.9
90672
88585
87216.5
86541.1
102550
102837
103383
104103
104828
105342
105053
103388
100459
96885.2
93460.5
90649.8
88565.9
87199.2
86524.5
102135
102581
103472
104777
106363
107963
108807
106819
102383
96925.4
92247.4
88807.6
86442.2
84963
84254.1
102115
102562
103455
104764
106352
107949
108779
106798
102363
96916.2
92236.7
88789.2
86419.2
84938.2
84228.8
102094
102544
103444
104762
106356
107946
108748
106787
102368
96943.2
92246
88775
86393.4
84908.8
84198.4
102075
102529
103439
104774
106369
107945
108562
106769
102241
97022.9
92299.2
88771.2
86366.3
84875.4
84163.6
102055
102516
103439
104785
106395
107872
107755
106440
103026
97160.4
92372.5
88782.7
86339.5
84839.6
84126.4
102037
102505
103452
104841
106466
107058
107617
106385
103037
98407.3
92485.2
88806.7
86319.5
84804.1
84089.8
102015
102490
103449
104843
105788
107069
107559
106320
102979
98405.1
93790.3
88822.7
86293.2
84772.6
84057.6
101993
102472
103437
104832
105770
107068
107561
106203
102951
98394.4
93753.5
88808.1
86288.6
84759.3
84035.6
101967
102442
103401
104796
105741
107034
107517
106258
102933
98368.7
93738.6
88783.2
86253.7
84734
84019.4
101941
102410
103357
104748
106374
106975
107504
106270
102924
98340.7
92406.4
88729
86242.4
84727.1
84013.2
101912
102373
103298
104646
106259
107738
107606
106302
102929
97043.1
92256.6
88667.5
86224.7
84724.9
84011.8
101886
102341
103253
104590
106189
107769
108392
106607
102086
96869.8
92146.9
88618.9
86214
84723
84011.1
101862
102312
103214
104534
106132
107728
108537
106584
102171
96750.8
92055.3
88584.8
86203.1
84718.4
84007.8
101839
102287
103183
104495
106087
107689
108527
106555
102127
96684.5
92007.2
88560.4
86190.4
84709.3
83999.8
101818
102265
103158
104467
106058
107663
108516
106536
102107
96654.5
91978.8
88539.9
86174.7
84695.3
83986.2
100852
101473
102766
104820
107690
111305
115096
112336
104865
95670.1
89280.4
85340.9
82862
81400
80728.4
100829
101451
102748
104808
107685
111302
115069
112320
104862
95675.4
89269.9
85315.3
82831.9
81369.9
80698.8
100803
101429
102733
104810
107714
111340
115063
112317
104910
95720.1
89276.1
85283.6
82791.1
81329.6
80659.3
100776
101409
102730
104862
107865
111462
112726
112379
106514
96146.1
89414.3
85268.7
82739.7
81279
80610.7
100746
101385
102733
104902
107919
109935
112659
112269
106543
98427.7
89529.6
85237
82677.9
81217.7
80555.3
100721
101377
102773
105084
107031
110088
112640
112100
106440
98623.7
91753.2
85283.4
82606
81161.2
80500.6
100689
101346
102753
104476
107082
110165
111685
111394
106777
99618.7
91902
87122.1
82485.2
81090
80448.1
100668
101332
102796
104466
107108
110181
111680
111348
106771
99624.6
91941
87155.8
82583.8
81068.1
80427.7
100638
101296
102703
104426
107069
110148
111638
111335
106726
99600.6
91907.5
87126.9
82445.8
81052.1
80410.1
100620
101276
102673
104986
106936
110011
111684
111333
106707
98593.2
91747.5
85205.2
82528.4
81084.5
80424.2
100595
101235
102584
104756
107776
109840
112493
112003
106314
98416.9
89415.2
85122.5
82564.2
81103.8
80441.3
100578
101211
102535
104669
107677
111280
112521
112191
106433
96001.7
89267
85119.7
82589.4
81127.9
80459.3
100560
101187
102493
104573
107482
111114
114848
112137
104718
95533.9
89090.1
85096.6
82603.2
81140.9
80470.1
100542
101166
102464
104528
107410
111034
114813
112080
104630
95450.5
89045.9
85090.6
82606
81143.2
80471.4
100523
101146
102441
104499
107374
110996
114799
112054
104593
95405.4
89017.3
85077.4
82597.5
81134.6
80462.4
98755.9
99505.3
101124
103896
108294
115213
120794
126142
112369
91078.9
83631.3
79980.5
77849.2
76716
76233.7
98727.3
99478
101100
103881
108296
115216
120780
126117
112339
91059.2
83599.7
79935.8
77807.8
76679.2
76199
98689.8
99441.8
101069
103858
108304
115262
120772
126091
112293
91000.6
83524.9
79845.9
77739
76623.5
76148.8
98648
99408.5
101056
103907
108702
113070
120858
126138
112222
95473.3
83559.4
79679.4
77637.8
76549.4
76083.3
98593.5
99351.6
101008
103962
107447
113335
121110
123675
113571
96102.7
86781.4
79480.2
77448.8
76440.2
76002.8
98552.7
99306.6
101045
103513
107531
112353
119309
122546
113487
98365.2
86862.4
81844.3
77250.2
76317.1
75920
98500.2
99244.2
101010
103530
107647
112376
118362
122490
113941
99280.7
88560.3
81834.9
77092.7
76205.3
75843.8
98463.8
99194.5
100981
103567
106970
111835
118355
122429
113865
99284
88512.2
81802.5
79026
76138.8
75813.6
98445
99189.9
100956
103512
106938
112296
118330
122404
113839
99262.3
88490.5
81748.7
77053.2
76166.4
75805.3
98443.9
99197.8
100938
103393
107540
112309
118268
122425
113875
99220.9
88534.9
81794
77172.4
76240.2
75843.3
98432.5
99191
100849
103804
107297
113240
119085
123423
113387
98128
86769.7
79365.4
77335.1
76326.5
75888.9
98437.9
99198.4
100847
103701
108500
112922
120719
125971
112077
95484.4
83419.9
79535.5
77489.6
76399.4
75932.5
98432.1
99185.2
100815
103607
108059
115026
120556
125865
112101
90826.8
83345.5
79662.8
77553.7
76436.4
75960.7
98425.3
99177.1
100802
103587
108008
114938
120509
125862
112113
90847.2
83384.1
79716.5
77585.2
76454.4
75973.1
98412
99162.7
100784
103560
107964
114895
120491
125854
112102
90825.8
83376.5
79722.6
77588.2
76452.8
75969.3
95622
96352.5
97982
100945
105982
112884
129452
159339
116514
83500.5
73314
71992.9
71238.3
70989.2
70919.8
95585.5
96315.7
97945.8
100908
105954
112858
129413
159300
116383
83415.2
73224.8
71915.9
71185.9
70947.5
70882.1
95529.2
96252.9
97870.3
100810
105822
112810
129313
159234
116318
83342.6
73063.6
71773.3
71092.5
70878.2
70824.7
95459.4
96179.1
97794.5
100578
105160
113145
129281
159069
115982
83309.9
76361.6
71349.9
70935.8
70777.3
70746.9
95364.5
96058.5
97580.4
100604
105162
112226
126290
158871
116757
87084.8
75918.9
73461.5
70602.9
70631.3
70646.3
95270.6
95891.5
98005.1
100640
104870
112178
124842
153785
121509
88975.9
78049.8
73206.1
72190.3
70458.2
70544.7
95201.2
95815
97968
100607
104870
111709
124715
153646
121424
88891.8
79225.6
74641.5
72067.7
70388.6
70475.2
95142.3
95756.6
97994
100597
104837
111653
124648
153574
121345
88826.9
79148.4
74566.3
72027.7
70369.7
70426.9
95141
95755
97920.3
100587
104831
111629
124624
153554
121279
88775.7
79124.9
74547.4
71983.1
70349.3
70436.4
95151
95771.8
97898.9
100502
104801
111628
124646
153583
121269
88774
79147.4
74595.7
72059.7
70380.6
70467.3
95188.7
95883
97405
100436
104999
112079
124736
153693
121425
88878.6
78086.6
73206.8
70488.9
70517.1
70531.7
95231.3
95951.3
97566.2
100354
104836
112868
126118
158776
116048
87322.3
76080.7
71208.7
70788.8
70627.4
70595.9
95252.3
95977.2
97598.3
100540
105556
112546
129067
158928
116091
83193.6
72888.5
71594.1
70909.1
70691.7
70636.7
95263.1
95994.6
97626.9
100593
105644
112567
129098
159006
116131
83220.1
73022.1
71702.9
70966.3
70723.9
70656.6
95257.4
95989.2
97621.1
100589
105631
112539
129117
159028
116214
83234.9
73070.3
71741.4
70980.7
70727.5
70655.9
91381.2
91836.6
92847.5
94693.8
97703.6
104468
112024
109876
25013.2
53389.2
58546.4
61575.4
63478.6
64680.5
65229.3
91337.3
91790.1
92796.8
94633.1
97650.7
104413
111977
109777
23663
53223.4
58423.6
61501.3
63434.2
64642.9
65195.2
91263.6
91704.3
92699.7
94533.9
97506.4
104291
111865
109682
23565.2
53180
58274.5
61437.3
63373.1
64587.5
65147.3
91166
91576.9
92545.6
94223.6
98730.4
103869
111598
109557
23726.1
53185.8
59596.2
61407.7
63297.8
64512.7
65087.9
91033.6
91411.6
92293.3
95301.8
98457.4
104225
112312
109375
23605.6
56367.6
61006.5
62574.1
63263.7
64444.2
65017
90884.3
91237.3
93373.2
95153.1
98870.9
104408
112099
109067
23795.8
56610.8
61839.3
62628.1
64244.3
64437.6
64955.2
90806.4
91150.1
93314
95040.6
99072.9
104315
111970
108911
24225.6
56591.3
61884.8
63458.5
64167.1
64432
64926.6
90751.8
91083.3
93246.9
95621.3
99036
104255
111899
108797
23840.5
56539.8
61871.2
63892.5
64189.1
64440.7
64896.3
90738.2
91081.6
93213.4
95581.7
99005.2
104225
111872
108799
23731.4
56443.5
61834.2
63867.2
64137
64392
64886.9
90749.9
91102.9
93228.6
94953.5
98976.5
104227
111891
108859
23741.9
56382.2
61784.9
63390.3
64114.1
64358.6
64876.1
90838
91215.3
92094.8
95043.2
98735.7
104265
111969
108957
23793.1
56433.5
61680
62429.8
63147.8
64327.7
64900.2
90914.6
91326.1
92295.7
93975.5
98393.8
103324
111088
109230
24633.6
54850.6
59313.9
61265.5
63149.6
64361
64934.6
90961.5
91403.5
92401.6
94240.4
97217.8
103802
111432
109308
23783.3
53002.4
58105.9
61260
63189.7
64399.7
64957.4
90988.8
91443.2
92452.9
94293.6
97316.2
104054
111599
109395
23461.4
53029.6
58231.1
61293.4
63216.2
64418.8
64968.2
90989.9
91447.1
92461.3
94311.8
97325.1
104093
111648
109441
23937.2
53122.8
58313.9
61329.4
63222.9
64418.4
64964.2
86294.6
86230.9
86080.3
85853.3
85913.4
90039.2
93895.5
107084
6176.56
32233.1
44928.7
51743.9
56202.9
58813.3
59985.3
86248.5
86181.8
86028.3
85795.4
85871.4
89976.4
93838.1
106890
2734.63
32198.4
44834.7
51712.6
56179.6
58788.1
59961
86173.4
86099
85942.9
85750.5
85799
89849.9
93717.2
106790
2300.39
32214.3
44832.4
51740.5
56172
58769.8
59938.2
86077.2
85975.2
85819.9
85765
88507.3
89760.2
93482.4
106656
2430.21
32393.5
45011.9
51926
56200.7
58766.7
59924.5
85956.5
85833.8
85725.9
87696.7
88498.7
91559.5
94524.3
106659
13874.6
32399.5
45582.5
52583.7
56286.5
58800.6
59922.4
85825.3
85766.7
87260.7
87579.8
89696.6
92325.4
94397.4
106284
4561.05
32471.3
45835.5
52549.1
56863.4
58842.2
59931.5
85759
85709.7
87124.4
87511.6
90292.8
92229.4
94324.5
106218
2231.89
32306
45837.1
52861.9
56838.7
58844.8
59927.2
85704.1
85646.2
87036.3
88447.6
90219
92170.4
94280.1
106145
2295.87
32365.8
45842.4
53049
56797.9
58848.3
59904.3
85680
85629.7
86997.4
88401
90180.6
92127.9
94236.2
106138
3487.38
32397.3
45828.9
53029.9
56774.2
58803.9
59885.9
85671
85611.5
87007.5
87417.5
90167.3
92111.9
94204.3
106110
3739.41
32278.8
45773.1
52811.2
56783.8
58760.8
59849.4
85734.3
85610.2
85500
87401.5
89546.8
92162.7
94222.6
106113
2757.19
32169.2
45680.7
52410.2
56166.8
58679.7
59801.2
85795.4
85693.7
85539.3
85488.7
88280.3
89645.4
93396.4
106453
2308.57
32123.8
45036.8
51776.1
56047.3
58610
59766.2
85839
85766.2
85613.8
85427.6
85486.6
89506.4
93301.8
106387
2479.22
32150.8
44663
51561.1
55984.8
58577.4
59743.2
85866.8
85802.5
85653.8
85428
85510.1
89581
93430.5
106483
2642.95
32086.9
44647.9
51507.5
55960.1
58560.4
59729.6
85869.9
85808.9
85663.2
85442.7
85507.2
89630.9
93482.2
106527
2309.63
32063.4
44703.3
51502.1
55946.4
58548.1
59716
81054.4
80410.5
79069.5
76930.5
76632.2
75645
78278.2
2299.14
24474.1
37743
45761.9
51324.1
54662.6
56215.6
81009.9
80363.4
79020.3
76879
76571.5
75573.7
78201.7
2296.73
24499.6
37716.8
45764.2
51310.3
54645.3
56197.7
80944.8
80298.7
78947.4
76818.3
76545.2
75499.2
78058.8
2297.12
24298.9
37788.5
45797.8
51315.4
54646
56188.9
80874.5
80224.4
78867.7
76921.6
76793.3
75375.9
77845.8
2296.68
24341.3
36748.6
45996.6
51364.3
54673.1
56196
80804.9
80157.1
78939.7
78904.9
77331.2
77457.7
78533.6
2298.65
22141.1
36225.6
45552.8
51447.5
54732
56218.3
80732.1
80208.6
80337.7
79140.2
78666.2
78447.3
78545.6
2296.58
21982.8
35928.6
45565.3
51277.7
54730.3
56250.9
80684.4
80181
80247.1
79182.6
79430.5
78512.2
78629.9
2294.63
21935.3
35937.1
45303.6
51295.2
54704.5
56238.4
80625.7
80125.2
80174.5
80007.7
79483.2
78516.6
78673
2319.64
22054.8
35970.1
45197.2
51255.1
54695.3
56211.5
80590.4
80084.7
80122.5
79966.6
79424.5
78440.4
78586.4
2308.64
22223.1
36000.3
45187.8
51238.4
54661.5
56194.7
80550.4
80024.2
80117.5
79026.6
79265.4
78313
78402.2
2287.94
22117
35951.9
45264
51233.9
54644.3
56163.9
80546.6
79895.1
78670.9
78634.1
78381.1
78187
78278.2
2283.82
21947.9
35852.5
45437.3
51321.4
54603.5
56089.6
80552.8
79902.1
78545.2
76607.2
76550.3
75256.3
77347
2290.01
22616.6
36697.5
45837.8
51201.3
54507
56028.6
80569
79925
78579.9
76464.5
76207.8
75146.7
77659.2
2293.65
24065.6
37609.4
45610.4
51119
54444.2
55984.6
80586.8
79943.7
78609
76482.9
76215.5
75187.9
77775
2293.86
24316
37522.9
45554.8
51084
54409.9
55957.7
80588.3
79948.3
78615.7
76489.2
76177.7
75195.5
77806.6
2297.64
24294.3
37530.9
45522.2
51062.8
54390.4
55938.1
76571.8
75389.1
72905.4
68556.2
66305.7
58851.7
54770.2
5951.35
2298.82
23567.4
35666.3
43937.9
49595.4
53029.6
54672.4
76523.4
75335.9
72842
68473.6
66216.6
58725.3
54602.5
2645
2297.36
23340
35651.8
43929.6
49570.6
53007.9
54650.3
76454.1
75265.3
72743.6
68326.5
66095.8
58525.5
54336.8
2822.9
2294.09
19865.9
35738.3
43918.3
49552.2
52994.9
54630.5
76383.5
75198.4
72606.7
68222.7
65974.5
58318.9
54177.8
2858.98
2299.55
20157.4
33238.1
43943.3
49545.9
52995.8
54618.1
76328
75131.6
72504.4
71132.5
65739.8
61210.1
56097.2
2665.52
2292.3
18162.8
31944.2
42279.8
49531.8
53023.6
54612
76273
75087.6
74358.7
70962.2
67669.9
62617.4
56390.5
3042.87
2374.5
18015.1
31267
42197.6
48466
52985.5
54621.6
76210.8
75019.6
74288.2
70807.1
68505.6
62779.9
56909.6
5059.51
2301.37
17963.5
31241.8
41360
48447.1
52934.6
54589.3
76138.5
74952.6
74199.7
72088.3
68463
62822.4
57175.8
11601.7
2560.54
18102.2
31273.3
40969.3
48415.5
52910.8
54559.1
76095.9
74899
74144.4
72035.4
68366.9
62663.5
57059.6
9931.1
16154.5
18592.3
31337.6
40967.7
48403.5
52886.9
54541.3
76053.6
74860.7
74137.2
70626.7
68279.2
62391.4
56281
3372.61
2318.45
18403.6
31314.1
41343.7
48401.5
52890.4
54526.3
76021.7
74816.9
72172.3
70775.3
67366.6
62227.4
55943.1
3154.91
2305.73
18060
31242.2
42116.7
49391.2
52882.5
54471.4
76009.6
74821.3
72226.6
67852.9
65544.3
58004.9
53957.1
2975.19
2288.31
18825.1
33053.5
43769
49366.6
52814.7
54436.6
76025.8
74838.9
72325.5
67933.4
65649.6
58159.6
54060.4
2928.1
2296.71
19937.8
35554.4
43715.9
49340.2
52778.3
54411.7
76048.8
74865.7
72384.2
68041.7
65784.7
58298
54165
2389.29
2295.08
23097.1
35466.1
43709.8
49332.5
52759.7
54396.8
76054.9
74877.4
72406.2
68078.1
65826
58355.1
54136.5
2664.12
2296.88
23247.8
35496.7
43692.7
49326.1
52746.2
54382.2
73675.9
72076.4
68676.8
62655.3
52269.1
42589.1
17970.3
2307.05
2301.8
25632
37407.6
45421.9
50778.7
54001
55538.6
73613.9
72005.4
68578.7
62517
52057.7
42360.7
17963.2
2250.25
2302.83
25297.3
37379.1
45371.3
50730.8
53964.6
55504.9
73519.9
71903.8
68437.8
62342.8
51766.9
41868.8
17742.5
2239.51
2300.61
20723.2
37229.2
45314.5
50670.1
53918.1
55461.7
73412
71802.7
68251.3
62144
56135.7
41452.6
17714.4
2269.59
2301.04
20480.8
33443.3
45178.5
50581.1
53861.3
55414
73316
71704.9
68130.1
64667.6
56050.9
45286.2
24158
2284.41
2277.78
17553
31570.8
42453.8
50474.9
53825.6
55367.1
73229.9
71590.1
69728.4
64562.1
58244
47311.9
25365.9
2310.73
2292.34
17381
30540.2
42247.1
48587.8
53764.7
55337.3
73128.9
71468.4
69677.7
64397.4
59185.2
47641
27525.6
2295.64
2219.73
17229.1
30432.9
40886.4
48497
53694.3
55286.4
73035.8
71373.8
69578.2
65697.2
59039.2
47559.3
26765.9
2250.46
2336.44
17249.8
30399.4
40233.2
48442.6
53655.2
55252.4
72986.7
71314.1
69505.6
65610.4
58890.2
47217.9
26036.7
2307.6
2280.08
17383.5
30427.2
40222.9
48435.9
53637.3
55231.5
72961.4
71304.2
69484.8
64149.3
58829.2
46886.7
25040.7
2297.45
2316.25
17536.8
30457.3
40864.6
48466.2
53653.8
55229.3
72947.5
71318.3
67705.2
64300.4
57812.8
46746.6
24759.8
2279.82
2274.28
17390.2
30491.5
42193.2
50304.6
53664.9
55208.7
72971.5
71352.4
67786.6
61677.8
55703.1
41198.6
19193.5
2271.86
2287.06
18453.1
33205.8
44964.8
50373.4
53657.8
55212.3
73026.3
71409.3
67948.9
61880.8
51390.4
41462.7
17651.8
2264.84
2302.69
20502.8
37031
45084.3
50434.8
53680.1
55222.4
73076.7
71472
68059.9
62034
51652.5
41864.6
17720.4
2253.82
2300.86
25009.4
37230.9
45138.2
50477.2
53697.9
55232.4
73098
71504.1
68121
62129.6
51802.1
42121.9
17820.1
2266.06
2302.25
25351.3
37323.1
45175.4
50500.8
53701.9
55230.7
73012.9
71349.3
67786.2
61633.9
51054.7
39328.1
6373.5
2304.76
2395.38
31580.5
42689.5
49965.5
54580.3
57277.3
58554.7
72932.7
71255.3
67646.7
61396.4
50735.1
38697.5
4793.3
2247.53
4254.02
31773.8
42729.6
49874.3
54506.7
57224.1
58508.5
72809.5
71117.9
67448.4
61115.5
50805.1
37312.9
6849.98
2264.07
2303.35
24496
42574.9
49773.5
54391.8
57146
58443
72663.5
70975.4
67252.6
60909.9
52871.4
36384.6
8336.88
2266.02
2300.25
24209.1
37606.9
49543.9
54235.1
57043.6
58365.1
72527.8
70850.1
67160.1
62283.9
52507.4
38891.2
17300.5
2282.71
2302.25
19998.5
34979.4
46024.7
54092.6
56964.9
58288.8
72406.2
70725.1
67928
62057.7
53882.9
40130.8
18007.4
2297.53
2294.35
19648.5
33485.1
45690.6
51585.9
56908.2
58235.9
72268.1
70562.1
67808.3
61838.3
54396.7
40098.9
18302.6
2295.96
2282.01
19281.7
33252.9
43835.7
51425.7
56829.8
58174.5
72155.2
70434.2
67680.2
62662.2
54129.4
39790
17733.5
2289.93
2298.97
19143.6
33114.1
42920.5
51345.1
56779.7
58135.6
72092.3
70363.5
67593.1
62546
53949.9
39466.6
17098.9
2182.04
2323.18
19264.3
33074.6
42884.1
51336
56762
58111.6
72077.2
70362.2
67552
61521.3
53950.6
39386.6
17159.3
2352.77
2280.58
19407.7
33131.9
43770.2
51392.5
56778.1
58113.3
72083.2
70371.5
66603.3
61705.3
53336.3
39518
17248.5
2274.27
2294.78
19512.4
33314.4
45635
53883.3
56779.5
58109.6
72142.2
70431.9
66668.8
60291.3
52128.5
36295.9
16716.6
2276.48
2296.01
21171.4
37155.2
49273.6
53989.2
56811.6
58139.3
72238.1
70537.9
66860.3
60538.7
50283.7
36448.9
6941.85
2270.65
2305.51
24143.5
42309.5
49498.1
54124.4
56880.5
58178.5
72322.5
70645.5
67048.1
60839.1
50275.5
38424.5
5191.6
2241.45
3358.69
31673.4
42561.3
49608.7
54230
56932.3
58211.6
72365.2
70705.8
67161.6
61052.4
50516.6
39080.3
5336.83
2221.28
3925.37
32045.4
42729.4
49719.6
54292.3
56956.9
58223.8
74819.9
73566.9
70906.7
66616.6
57841.7
47540
12845.3
2319.03
30423.6
48418.3
52865.5
57810.8
60738.2
62457.3
63293.2
74723
73446.3
70717.2
66231.1
56959.7
46586.8
2946.89
2321.66
28942.8
47831.1
52702.2
57628
60635.2
62389.5
63237.5
74575
73273
70467.9
65705.2
58509.3
43965.9
13347.1
2337.04
8380.55
36650.9
52590.7
57377.4
60457.2
62289.2
63157.2
74397.7
73067.7
70154
65272.5
57395.8
42383.1
14322.4
2286.4
2306.18
34436.9
46536.2
57069.2
60237.3
62162.9
63063.7
74228.5
72878.4
69953.9
64968.4
56333.3
42343.1
19471.6
2303.85
2303.7
27342.1
43075.3
52984
60108.6
62069.2
62980.7
74073.1
72728.3
69678.9
64393.4
56141.4
42145.1
19096.9
6519.24
2302.19
26332.3
40867.3
52581.2
57197.7
62059
62932.8
73900.5
72518.9
69385.5
63987
55859.9
41365.5
17939.1
2267.69
2320.59
25869.1
40427.1
50322.8
57012.5
61992.3
62872.7
73766.6
72356.9
69182.9
64025.5
55357.4
40709.9
17688.6
2409.88
2297.83
25161.4
40143.9
49177.8
56938.1
61943.3
62831.9
73686.8
72266.6
69070.3
63855.9
55094.5
40360.4
17084.7
2162.36
2354.58
25674.3
40006.1
49109.8
56914.1
61917.7
62803.1
73676.5
72271.8
69050.1
63548.4
55187
40589.5
18506.8
2108.77
2400.22
25481.9
40065.4
50197.5
56958.5
61913.5
62797
73700.2
72292.1
69223.1
63892.4
55347.6
41332.6
19509.9
2347.36
2302.95
25695.1
40477.7
52494.9
59864.4
61858.7
62781.2
73788.3
72416.4
69418.9
64425
55929.4
41306
18539.9
2303.52
2300.18
28972.9
45697.1
56729.7
59947.8
61900.2
62812.1
73918.9
72595.2
69753.6
64959.7
57731.9
42629.5
13529.2
2329.36
7857.54
34954.5
52214.3
57039.7
60147.3
61990.4
62863.8
74034
72750.5
70019.9
65567.1
56412.3
46341.9
4233.25
2320.74
29098
47731.3
52424.2
57309.6
60319.5
62063.2
62910.1
74097.3
72844
70196
65964.9
57167.9
47540.8
11007.6
2327.4
31413.9
48633.9
52779
57527
60419.8
62104.3
62932.2
78630.8
78138.2
77167.4
76688.5
75181
81652.3
112831
98902.9
85166.7
72758.5
67884.4
68449.4
68577.1
68922.2
69161.9
78525.4
77995.6
76941.8
76250
74133.7
81039.7
115233
84684.1
80417.9
71457.7
67327.7
68114
68437.1
68840.8
69101.3
78362.4
77783.9
76640.4
74928.9
73674.4
66039.2
63414.5
42032.6
48798.2
59797.5
66624.3
67490.3
68193.3
68723.7
69013.9
78162.8
77522.3
76173.1
74202
68572.9
60907.5
42429.8
5672.63
25498.5
56167
61037.1
66935.8
67907.2
68588.2
68916.8
77971.7
77277.9
75855.4
71897.7
67123.4
56893.8
34186.3
2258.99
13446.6
45281.2
56833.3
63155.2
67748.8
68490.5
68841.1
77799.7
77092.5
74356.6
71150
65079.5
54311
33881.9
2294.03
17837
41741.9
53800.4
62738.5
64997.6
68465.1
68817.5
77606.5
76857.5
73933.8
70636.6
63834.6
52499.3
29924.1
2320.68
2317.13
38770.6
52884.1
60259.6
64854.1
68416.8
68768.9
77456.2
76672.8
73678
69703.7
62998
50983.9
27233.8
2299.31
2280.21
38222.6
52531.9
58966.9
64847.7
68381.8
68732.8
77356.5
76552.4
73520
69446.7
62488.7
49982.2
26393.1
2276.24
2865.72
39110.1
52379.4
58899.4
64807.8
68342.5
68695.4
77339.5
76544.7
73506.7
69920.6
62537.1
49726.1
25631.6
2331.05
2361.81
38192.7
52528.4
60117.5
64772.8
68315.7
68672.7
77365.2
76580.8
74924.8
70304.3
63661
51761.1
28785.3
2243.89
12277.6
40433.5
53341.1
62612.1
67496.2
68262.6
68624.8
77472.7
76768.6
75284.7
73117.2
66252.7
57939.5
34008.2
2275.13
12727
47405
59779.5
66560.4
67584.5
68298.8
68640.8
77627.8
77011.8
75793.1
74001.9
72612.8
61857
49006.7
34301.9
42772.9
57128.1
66126.9
67081.8
67836.1
68388.9
68689.5
77762.2
77215.7
76133.6
75435.1
73318.9
80112.7
113450
82470.6
80063.8
70965.3
66909.9
67720.8
68065.1
68472.4
68738.6
77837.6
77339.7
76365.1
76008.3
74521.7
82299.6
116905
106411
86124.1
72715.5
67610.3
68077
68195.5
68523.2
68763.5
83363.7
83650.8
84218.1
86818.9
90975.6
96180.8
121407
123906
107112
89520.2
81953.4
78779.4
76513.4
75667.8
75336.2
83276.3
83533.8
84077.4
86709.5
90855.9
96943.4
127280
133065
109069
89665.2
81613.9
78534.3
76405.1
75594.7
75284.3
83131.1
83302.1
83862.3
85217.5
89457.1
92487.4
116595
146121
113391
88181.4
80632.2
77810.2
76192.2
75480.6
75207.7
82944.2
83043
83358.2
84350.9
83884.6
89762.1
109965
150501
109923
85534.3
77991.5
77018.9
75899.9
75352.9
75123.2
82765.9
82805.2
82938.1
81308.9
81985.6
81913.7
85700.2
126965
90177.5
77088.9
74786.2
74648.8
75694.7
75264
75060.6
82615.7
82539.5
80909.1
80564.3
78834.1
76861.6
71205.7
27778.2
63889.4
71011.7
72060.1
74293.9
73808.9
75178.5
75047
82436.3
82313.7
80548.3
80000.3
76788.3
74312.2
65272.5
2433.33
26175.4
65547.6
71029.3
72667.9
73775.6
75129.7
75013.9
82288.3
82137.8
80292.4
78375.9
75873.1
72177.7
59765.4
2282.56
6966.23
65518.7
70899.6
71743.1
73743.4
75105.5
74987.9
82167.8
81990.7
80100.8
78055.3
75150.9
70467.6
57614.8
15031.6
1176.7
65019.3
70940.4
71716.6
73709.7
75052.3
74936.6
82122
81955.9
80027.2
79097.2
74906.6
69322.5
43166.8
12034.3
29734.8
67029.6
71177.3
72578.3
73676.9
75024.6
74895.6
82114.7
82050.1
81941.8
79478.9
76711.8
72286
61647.3
13031.3
59898.1
71376.5
71982.1
74144.7
75445.6
75028
74831.2
82203.9
82228.4
82380.4
83125.2
81115.5
84584
89976.6
136909
89423.5
79106
76704.8
76648.3
75567.3
75045.9
74826.9
82341.3
82463.6
82913.6
84139.5
88117.7
90240.2
113617
147261
111059
86541.9
80043.5
77349.4
75796.2
75113.8
74854.2
82455.2
82684.4
83157.6
85705.2
89680.1
95491
125481
130404
107610
88734.9
81040.3
78044.6
75974.1
75184.5
74885.8
82513
82789.6
83307.5
85997.2
90026.2
95210.9
119787
118445
105595
89088.7
81463.5
78303.2
76061.5
75221
74898.3
87731.4
88385.9
89434.4
91875.4
96398.3
96298.7
102514
107644
100987
93611.8
89234.9
85619.3
82837.5
81551
80914.7
87705.4
88367.5
89486.8
92270.2
97047.5
97600.8
104646
111680
103553
94702.4
89615.4
85730.7
82862.4
81534.8
80898.1
87650.4
88239.6
89612.9
92025.6
96563.4
99441.1
105750
117844
104716
96461
89365.1
85517.8
82852.6
81490.1
80873.3
87551.1
88110.6
89395.2
92102.5
93778.9
101313
113479
129351
114161
97597.9
89354.6
85268.2
82768
81434.6
80842.9
87436.6
87957.9
89152.6
89744
93581.7
99841.2
115515
147550
120809
99025.2
88885.6
84369.5
82678.7
81398
80820.8
87322.3
87685.3
87609.2
89237.9
91462
97951.2
117709
155687
123843
99339.9
88750.3
84426.3
81849
81298.5
80824.6
87198.3
87529.6
87450.1
88905.5
90195.4
97025.5
115917
169376
141231
102417
89504.7
84174.4
81922.5
81294.8
80822.4
87082
87397
87254.7
87673.5
89576
95797.7
112804
172258
192719
106492
90360.4
84121.1
81914.1
81283.4
80811.4
86945.9
87244.3
87053.3
87375.6
88982.2
94671.4
112373
168487
158112
105249
90263.3
84077.4
81863.4
81211.3
80738.7
86851.5
87156.6
86878.8
87987.1
88648.4
93786.4
111704
171438
136629
102502
89505.1
84028
81775.3
81135.2
80663.4
86795.8
87226.7
88173.8
88300.2
89612.8
94227.3
109934
153903
128984
100273
88788.3
84192.1
82439.3
81157.5
80579.9
86808.8
87298.8
88415.7
90839.3
92034.2
99389.5
112021
143873
120256
98491.8
88810
84905.4
82433.7
81115.6
80530.4
86845
87385.5
88636.8
90905
95238
98705.7
107245
120564
105784
96397.2
88819.2
85052.4
82436.8
81100.5
80496.3
86855.3
87482.8
88501.1
91179
95728.1
96037.2
103127
109825
102345
93797.1
88964.9
85180.9
82390.8
81091.3
80469.2
86845
87484.1
88425
90866.7
95079.5
94513.1
100085
104585
100001
92829
88520.6
85059.2
82328.6
81066
80442.4
90986.7
91583.5
92441.5
93471.6
96533.8
96104.3
96997.1
100573
95715.2
93672.7
91614.4
89125.9
87075.3
85976.9
85339.8