/*--------------------------------*- C++ -*----------------------------------*\
| =========                 |                                                 |
| \\      /  F ield         | OpenFOAM: The Open Source CFD Toolbox           |
|  \\    /   O peration     | Version:  v2012                                 |
|   \\  /    A nd           | Website:  www.openfoam.com                      |
|    \\/     M anipulation  |                                                 |
\*---------------------------------------------------------------------------*/
FoamFile
{
    version     2.0;
    format      ascii;
    class       volScalarField;
    location    "0.046";
    object      p_rgh;
}
// * * * * * * * * * * * * * * * * * * * * * * * * * * * * * * * * * * * * * //

dimensions      [1 -1 -2 0 0 0 0];


internalField   nonuniform List<scalar> 
449343
(
103233
103361
103573
103770
103845
103557
102732
101294
99299.4
96960.9
94573.7
92415.4
90680.2
89479.2
88867.8
103234
103362
103574
103771
103845
103555
102729
101292
99298.1
96961.4
94575.5
92417.2
90681.2
89479.4
88867.5
103236
103365
103577
103772
103845
103552
102723
101285
99294.3
96961.9
94579.1
92421
90683.4
89479.9
88867.1
103238
103367
103580
103774
103844
103544
102713
101273
99286.7
96960.5
94583.8
92426.8
90687
89481.1
88866.8
103241
103370
103583
103777
103843
103535
102700
101259
99277.7
96959
94590.2
92434.6
90692
89482.9
88866.9
103243
103373
103586
103778
103841
103527
102688
101248
99271.3
96960.7
94598.3
92443.7
90697.8
89485.3
88867.5
103243
103374
103587
103779
103838
103521
102680
101240
99268.1
96965.1
94604.9
92452.3
90703.2
89487.6
88868.3
103242
103372
103586
103777
103836
103518
102673
101231
99260.9
96963.8
94607.2
92455.2
90705.1
89488.6
88868.8
103238
103368
103582
103774
103834
103518
102677
101238
99267.1
96964.6
94604.9
92452.5
90703.6
89488.2
88868.9
103232
103362
103576
103769
103833
103521
102683
101244
99269
96959.6
94598
92444
90698.6
89486.4
88868.6
103225
103355
103569
103763
103831
103526
102692
101254
99274.6
96957.6
94590
92435.3
90693.3
89484.6
88868.7
103218
103348
103561
103758
103830
103532
102704
101267
99282.9
96958.8
94583.8
92427.9
90688.8
89483.3
88869.2
103213
103342
103555
103753
103828
103538
102712
101278
99290
96960.2
94579.1
92422.4
90685.6
89482.6
88870
103209
103338
103551
103749
103827
103540
102718
101284
99293.4
96959.4
94575.6
92418.8
90683.7
89482.5
88870.9
103206
103335
103549
103747
103826
103541
102720
101286
99294.5
96958.9
94573.9
92417.1
90682.9
89482.5
88871.4
103090
103266
103580
103932
104184
104121
103429
101925
99674.3
96993.5
94305.1
91946.8
90101.3
88847.2
88215.2
103091
103268
103582
103934
104185
104120
103426
101922
99673.2
96995.2
94308.2
91949
90102
88846.8
88214.2
103093
103270
103585
103937
104187
104116
103418
101915
99670.4
96999.4
94315.6
91954.3
90103.9
88846.2
88212.5
103095
103274
103590
103942
104188
104107
103402
101894
99658.3
97000.1
94326.2
91963
90107.2
88845.8
88210.4
103098
103278
103596
103948
104190
104090
103381
101872
99630.5
97001.7
94341.8
91975.5
90112.4
88846
88208.5
103100
103281
103602
103954
104194
104082
103364
101856
99626
97006.7
94358.9
91990.5
90119.3
88847
88207.1
103101
103283
103605
103957
104189
104080
103356
101847
99623.5
97020.2
94386.7
92008
90125.9
88848.8
88206.8
103099
103282
103604
103958
104190
104077
103346
101791
99609.4
97016.1
94390.1
92012.1
90127.8
88849.9
88207
103095
103277
103600
103952
104185
104076
103353
101845
99622.3
97019.6
94386.6
92008.2
90126.3
88849.3
88207.4
103088
103270
103591
103945
104185
104075
103358
101852
99623.6
97005.5
94358.6
91990.9
90120.1
88848.2
88208.4
103081
103261
103580
103933
104178
104080
103374
101867
99627.6
97000.6
94341.9
91976.5
90114
88847.9
88210.5
103073
103253
103570
103924
104172
104094
103393
101888
99654.7
96998.8
94326.6
91964.5
90109.4
88848.3
88213.1
103067
103246
103562
103917
104169
104101
103407
101908
99666.4
96998.3
94316.3
91956.3
90106.6
88849.3
88215.8
103063
103241
103557
103911
104165
104103
103414
101914
99668.9
96993.8
94309
91951.3
90105.1
88850.4
88218
103061
103239
103554
103908
104163
104104
103416
101917
99669.8
96992.1
94306
91949.2
90104.6
88851
88219.2
102721
103008
103552
104269
104990
105499
105204
103534
100600
97022.2
93595
90783
88698.5
87331.5
86656.6
102722
103009
103555
104273
104994
105500
105201
103531
100600
97027.4
93601
90785.8
88698.2
87329.5
86654
102723
103012
103560
104282
105004
105501
105189
103524
100598
97042.4
93617.8
90793.6
88698.3
87326
86649.1
102726
103016
103569
104295
105015
105488
105153
103500
100559
97051.4
93647.9
90808.9
88699.9
87321.5
86642.5
102728
103022
103581
104311
105026
105456
105065
103400
100481
97082.9
93686.1
90829.8
88704.2
87317.1
86635.4
102731
103029
103595
104329
105049
105432
105029
103380
100475
97108.9
93738.6
90858
88710.6
87314.2
86629.2
102732
103032
103601
104343
105039
105437
105013
103365
100469
97127.6
93859.4
90893.6
88720.6
87312.9
86625.1
102730
103032
103602
104346
105047
105447
105033
103388
100455
97124.6
93861.7
90899.1
88723.7
87314.7
86624.8
102724
103025
103595
104337
105034
105433
105010
103363
100467
97126.8
93858.9
90893.7
88720.9
87313.4
86625.9
102717
103015
103582
104318
105039
105423
105023
103376
100473
97107.8
93738.4
90858.6
88711.7
87315.5
86630.7
102708
103003
103563
104294
105011
105444
105057
103395
100478
97082.5
93687
90831.5
88706.4
87319.5
86637.9
102700
102992
103546
104273
104997
105473
105142
103493
100557
97051
93649.6
90811.6
88703.1
87324.8
86646
102694
102983
103533
104257
104982
105484
105176
103517
100595
97043
93620.2
90797
88702.3
87330.1
86653.3
102690
102977
103525
104246
104971
105481
105187
103523
100597
97027.7
93603.6
90789.7
88702.7
87334.3
86658.9
102688
102975
103521
104241
104966
105479
105190
103525
100597
97022.5
93597.8
90787.1
88703.3
87336.6
86661.8
101997
102443
103334
104640
106226
107825
108670
106682
102246
96788.1
92110
88670.3
86304.9
84825.6
84116.7
101997
102444
103338
104647
106234
107831
108661
106680
102245
96798.5
92119
88671.5
86301.4
84820.5
84111.1
101996
102446
103346
104664
106258
107848
108650
106689
102270
96845.1
92147.9
88676.9
86295.3
84810.7
84100.3
101996
102450
103361
104696
106290
107866
108483
106690
102163
96944.4
92220.7
88692.7
86287.8
84796.9
84085.1
101996
102457
103380
104726
106336
107813
107692
106376
102962
97101.5
92313.7
88723.8
86280.7
84780.7
84067.5
101998
102466
103413
104802
106426
107014
107573
106341
102993
98363.2
92445.9
88767.5
86280.3
84764.9
84050.6
101996
102471
103429
104823
105764
107044
107535
106296
102955
98380.6
93765.7
88803.1
86273.5
84753
84037.9
101993
102472
103437
104832
105765
107063
107556
106198
102946
98389.5
93748.6
88808.1
86288.6
84759.3
84035.6
101987
102462
103421
104816
105756
107049
107532
106273
102947
98383.4
93753.3
88802.8
86273.4
84753.6
84039
101980
102449
103397
104787
106414
107009
107538
106304
102959
98375
92445.7
88768.2
86281.7
84766.4
84052.4
101971
102432
103357
104705
106317
107797
107660
106356
102983
97102
92315.5
88726.3
86283.5
84783.8
84070.7
101964
102419
103331
104669
106267
107847
108471
106685
102164
96948.3
92225.4
88697.4
86292.5
84801.5
84089.6
101960
102410
103312
104633
106230
107826
108635
106682
102269
96848.9
92153.4
88682.9
86301.2
84816.5
84105.9
101957
102405
103300
104613
106205
107807
108645
106672
102245
96802.3
92124.9
88678.1
86308.1
84827.1
84117.5
101955
102402
103296
104605
106195
107800
108653
106674
102244
96791.8
92116.2
88677.3
86312
84832.6
84123.5
100714
101336
102628
104682
107552
111167
114958
112194
104727
95532.8
89143
85203.6
82724.6
81262.7
80591.1
100711
101334
102630
104691
107567
111184
114951
112197
104744
95557.7
89152.2
85197.6
82714.2
81252.2
80581
100705
101331
102635
104712
107616
111241
114965
112214
104812
95622
89178
85185.5
82693
81231.5
80561.2
100697
101330
102652
104784
107787
111383
112643
112296
106430
96067.6
89335.8
85190.2
82661.3
81200.5
80532.2
100687
101326
102674
104843
107860
109872
112595
112205
106479
98363.9
89470.8
85178.1
82619.1
81158.8
80496.4
100682
101338
102734
105045
106987
110044
112596
112056
106396
98579.5
91709
85244.2
82566.7
81122
80461.4
100670
101327
102733
104452
107058
110140
111658
111367
106750
99591.7
91877.4
87097.5
82465.6
81070.4
80428.5
100668
101332
102796
104461
107103
110176
111672
111341
106764
99617.2
91936.1
87150.9
82583.8
81068.1
80427.7
100658
101315
102722
104441
107083
110163
111650
111347
106739
99612.8
91922.2
87141.6
82465.4
81071.8
80429.8
100659
101315
102712
105026
106971
110046
111716
111365
106739
98627.5
91781.8
85244.4
82567.7
81123.7
80463.4
100654
101294
102643
104814
107835
109894
112547
112057
106367
98470.8
89474
85181.3
82623.1
81162.7
80500.2
100657
101290
102613
104748
107756
111359
112595
112265
106506
96080.2
89345.5
85198.2
82667.9
81206.4
80537.7
100658
101285
102591
104671
107580
111212
114946
112230
104816
95632
89188.2
85194.7
82701.3
81239
80568.2
100660
101283
102582
104646
107528
111152
114930
112193
104748
95568.2
89163.6
85208.3
82723.7
81260.9
80589.1
100661
101283
102578
104636
107512
111134
114937
112187
104730
95542.7
89154.6
85214.8
82734.8
81271.9
80599.7
98618.6
99368
100987
103759
108157
115076
120652
126000
112227
90941.5
83493.9
79843.1
77711.9
76578.7
76096.4
98609.6
99360.3
100983
103763
108178
115098
120657
125995
112217
90941.5
83482
79818.1
77690.1
76561.5
76081.3
98591.7
99343.7
100971
103760
108206
115164
120669
125988
112190
90902.5
83426.8
79747.8
77640.9
76525.4
76050.7
98569.5
99330
100978
103829
108623
112987
120774
126055
112138
95389.9
83480.9
79601
77559.3
76470.9
76004.8
98534.6
99292.7
100950
103903
107383
113271
121046
123609
113504
96039
86717.7
79421.4
77389.9
76381.3
75943.9
98513.5
99267.3
101006
103469
107487
112306
119262
122498
113441
98318.6
86818.2
81800.2
77211
76277.9
75880.8
98480.6
99224.6
100990
103506
107622
112349
118333
122461
113913
99252.5
88533.3
81810.3
77073.1
76185.7
75824.2
98463.8
99194.5
100976
103563
106963
111826
118346
122420
113856
99275.4
88504.8
81797.6
79021.1
76138.8
75813.6
98464.6
99209.5
100976
103527
106950
112308
118341
122415
113850
99273.3
88502.7
81763.4
77072.9
76186.1
75824.9
98483.2
99237
100977
103428
107574
112341
118299
122456
113905
99251.5
88566.8
81828.3
77211.6
76279.5
75882.6
98491.3
99249.9
100908
103863
107351
113294
119137
123474
113439
98179.5
86823.7
79424.3
77393.9
76385.4
75947.8
98516.4
99276.9
100926
103780
108579
112996
120792
126044
112150
95558
83498.4
79614
77568
76477.8
76011
98530.2
99283.3
100913
103705
108157
115124
120650
125958
112195
90924.9
83443.6
79760.9
77651.8
76534.5
76058.8
98543
99294.8
100920
103704
108125
115055
120621
125975
112226
90964.9
83501.8
79834.2
77702.9
76572.1
76090.8
98549.4
99300
100922
103698
108102
115032
120623
125987
112235
90963.2
83513.9
79859.9
77725.6
76590.1
76106.6
95484.7
96215.2
97844.6
100808
105845
112742
129310
159194
116369
83358.3
73176.7
71855.5
71101
70851.9
70782.4
95467.7
96197.9
97828
100790
105836
112736
129290
159175
116258
83292.5
73107.1
71798.2
71068.2
70829.8
70764.3
95431.1
96154.8
97772.2
100712
105724
112707
129210
159128
116212
83239.6
72965.5
71675.2
70994.4
70780.1
70726.6
95381
96100.6
97716
100499
105076
113062
129198
158983
115896
83226.6
76278.2
71271.4
70857.3
70698.8
70668.5
95305.6
95999.7
97521.5
100541
105099
112160
126224
158805
116691
87018.6
75855.2
73397.8
70544
70572.4
70587.4
95231.4
95852.2
97960.9
100595
104824
112131
124794
153737
121461
88928.1
78003.2
73162
72146.1
70419
70505.5
95181.6
95795.4
97943.5
100582
104843
111681
124687
153618
121396
88863.5
79197.4
74614.6
72043.2
70369
70455.6
95142.3
95756.6
97989.1
100592
104830
111645
124639
153565
121337
88818.3
79139.8
74558.9
72022.8
70369.7
70426.9
95160.6
95774.6
97935
100602
104843
111640
124635
153565
121290
88786.7
79135.9
74559.7
71997.8
70368.9
70456
95190.3
95811
97933.2
100536
104833
111659
124677
153613
121300
88804.6
79178
74627.6
72094.1
70419.9
70506.5
95247.6
95941.9
97463.8
100490
105053
112130
124787
153743
121475
88928.9
78138.1
73260.7
70547.8
70575.9
70590.5
95309.8
96029.8
97644.7
100432
104910
112942
126189
158847
116119
87393.4
76154.2
71287.2
70867.2
70705.9
70674.3
95350.4
96075.3
97696.4
100638
105654
112639
129160
159019
116182
83286.8
72986.6
71692.2
71007.2
70789.8
70734.8
95380.8
96112.3
97744.6
100711
105762
112679
129211
159117
116242
83332.9
73139.8
71820.6
71084
70841.7
70774.3
95394.7
96126.5
97758.5
100726
105768
112672
129249
159158
116344
83367.3
73207.6
71878.7
71118
70864.8
70793.3
91243.9
91699.3
92710.2
94556.4
97566.2
104326
111879
109730
24867.3
53247
58409
61438
63341.3
64543.1
65092
91219.5
91672.4
92679.1
94515.4
97533
104290
111852
109651
23536.7
53100.8
58305.9
61383.6
63316.5
64525.2
65077.4
91165.5
91606.2
92601.6
94435.8
97408.3
104188
111760
109575
23458.5
53077
58176.4
61339.2
63275
64489.4
65049.2
91087.5
91498.4
92467.1
94145.2
98647
103785
111512
109470
23639
53102.4
59512.8
61329.2
63219.3
64434.2
65009.4
90974.7
91352.7
92234.4
95238
98393.6
104158
112245
109308
23538.2
56300.2
60940.3
62510.4
63204.9
64385.3
64958.1
90845
91198.1
93329.1
95108.9
98824.3
104360
112051
109019
23748
56563
61791.5
62584
64200.1
64398.4
64916
90786.8
91130.5
93289.5
95016.1
99044.7
104287
111942
108882
24197.4
56563.1
61856.6
63431.5
64142.6
64412.4
64907
90751.8
91083.3
93242
95613.9
99027.4
104247
111890
108788
23831.9
56531.2
61862.7
63884
64184.2
64440.7
64896.3
90757.8
91101.3
93228.2
95594
99016.3
104236
111883
108810
23742.5
56454.6
61845.3
63878.3
64151.7
64411.6
64906.5
90789.2
91142.1
93263
94987.8
99007.2
104258
111921
108890
23772.6
56412.9
61815.5
63422.2
64148.4
64397.8
64915.3
90896.8
91274.2
92153.7
95097.2
98787.2
104315
112019
109007
23843.4
56483.7
61730.2
62483.7
63206.7
64386.6
64959
90993.1
91404.6
92374.2
94053.9
98467.4
103398
111159
109300
24703.5
54921.7
59387.5
61344
63228
64439.5
65013.1
91059.6
91501.6
92499.7
94338.5
97315.9
103895
111523
109397
23872.8
53095.6
58204
61358.1
63287.8
64497.8
65055.5
91106.5
91560.9
92570.6
94411.3
97434
104167
111709
109505
23570.6
53142.4
58348.8
61411.1
63333.9
64536.5
65085.9
91127.3
91584.5
92598.7
94449.2
97462.4
104225
111778
109569
24065.9
53255.2
58451.2
61466.7
63360.3
64555.8
65101.6
86157.2
86093.6
85942.9
85716
85776.1
89897
93750.9
106938
6030.64
32090.9
44791.3
51606.6
56065.6
58676
59848
86130.7
86064.1
85910.6
85677.7
85753.7
89853.8
93713
106763
2609.31
32075.8
44717
51594.8
56061.9
58670.3
59843.3
86075.3
86000.9
85844.8
85652.4
85700.9
89746.9
93611.7
106683
2198.84
32111.3
44734.3
51642.4
56073.9
58671.7
59840.1
85998.7
85896.7
85741.5
85686.5
88423.9
89676.8
93396.5
106568
2344.6
32310.2
44928.5
51847.5
56122.2
58688.2
59846
85897.7
85775
85667
87632.9
88434.9
91493.3
94456.9
106590
13807.2
32332
45516.3
52520
56227.6
58741.8
59863.5
85786
85727.5
87216.5
87535.7
89650
92277.6
94349.6
106236
4513.23
32423.4
45787.7
52505
56819.3
58802.9
59892.2
85739.4
85690
87099.8
87487.1
90264.6
92201.2
94296.3
106189
2205.45
32277.8
45808.9
52834.9
56814.2
58825.2
59907.6
85704.1
85646.2
87031.4
88440.2
90210.4
92161.8
94271.5
106135
2287.87
32357.2
45833.8
53040.4
56793
58848.3
59904.3
85699.7
85649.3
87012.1
88413.2
90191.6
92139
94247.3
106148
3498.36
32408.3
45839.9
53041
56788.9
58823.5
59905.5
85710.2
85650.7
87041.8
87451.8
90198
92142.5
94235
106140
3770.07
32309.5
45803.7
52843.1
56818.1
58800.1
59888.6
85793.1
85669
85558.9
87455.4
89598.3
92213
94272.9
106163
2807.23
32219.5
45730.9
52464.2
56225.6
58738.6
59860.1
85873.9
85772.2
85617.8
85567.2
88353.9
89719
93467.5
106522
2377.24
32194.9
45110.3
51854.5
56125.8
58688.5
59844.6
85937.1
85864.3
85711.9
85525.7
85584.7
89599.6
93392.6
106476
2567.69
32244
44761.1
51659.2
56082.9
58675.5
59841.3
85984.5
85920.2
85771.5
85545.7
85627.8
89693.8
93540.9
106591
2751.38
32199.7
44765.6
51625.2
56077.9
58678.1
59847.3
86007.3
85946.2
85800.6
85580.1
85644.5
89763.3
93612.1
106656
2431.82
32195.8
44840.6
51639.4
56083.8
58685.4
59853.3
80917.1
80273.2
78932.2
76793.1
76489.9
75502.7
78133.5
2155.98
24331.9
37605.6
45624.6
51186.7
54525.3
56078.2
80892.2
80245.7
78902.6
76761.3
76448.9
75451.1
78076.7
2196.42
24377
37599.1
45646.5
51192.6
54527.6
56080
80846.7
80200.6
78849.3
76720.2
76442.2
75396.2
77953.4
2227.47
24195.9
37690.4
45699.7
51217.3
54547.9
56090.8
80796.1
80146
78789.2
76843.1
76709.9
75292.5
77760
2235.86
24257.9
36665.2
45918.1
51285.8
54594.6
56117.5
80746
80098.2
78880.8
78841.2
77267.4
77391.5
78466.2
2262.04
22073.7
36159.4
45489
51388.7
54673.1
56159.4
80692.9
80169.4
80293.5
79096.1
78619.6
78399.4
78497.8
2280.25
21935
35880.8
45521.2
51233.6
54691.1
56211.7
80664.8
80161.4
80222.6
79158.1
79402.3
78484
78601.7
2284.8
21907.1
35908.9
45276.7
51270.7
54684.9
56218.8
80625.7
80125.2
80169.5
80000.4
79474.7
78508
78664.4
2315.16
22046.2
35961.5
45188.6
51250.1
54695.3
56211.5
80610.1
80104.3
80137.3
79978.9
79435.6
78451.5
78597.4
2318.21
22234.2
36011.4
45198.8
51253.1
54681.1
56214.3
80589.6
80063.4
80151.9
79061
79296
78343.7
78432.9
2300.45
22147.6
35982.5
45295.9
51268.2
54683.5
56203.2
80605.5
79954
78729.7
78688
78432.6
78237.2
78328.5
2301.92
21998.2
35902.8
45491.3
51380.3
54662.4
56148.5
80631.2
79980.5
78623.7
76685.7
76623.8
75329.9
77418.1
2312.91
22687.8
36771.1
45916.2
51279.8
54585.5
56107.1
80667.1
80023.1
78678
76562.6
76301
75239.9
77749.9
2360.29
24158.8
37707.5
45708.5
51217.1
54542.3
56082.7
80704.5
80061.4
78726.7
76600.6
76328.3
75300.7
77885.4
2374.45
24428.8
37640.7
45672.6
51201.8
54527.6
56075.4
80725.7
80085.6
78753.1
76626.5
76310.1
75327.9
77936.5
2386.51
24426.8
37668.3
45659.5
51200.1
54527.7
56075.4
76434.5
75251.8
72768.1
68418.9
66163.5
58709.4
54625.5
5804.81
2168.11
23430.1
35529
43800.6
49458
52892.2
54535.1
76405.7
75218.2
72724.3
68355.9
66093.9
58602.7
54477.5
2536.08
2197.18
23222.2
35534.1
43811.9
49452.9
52890.2
54532.6
76356
75167.2
72645.5
68228.4
65992.8
58422.5
54231.3
2737.46
2216.16
19762.9
35640.2
43820.2
49454.1
52896.8
54532.4
76305
75120
72528.2
68144.2
65891.1
58235.5
54092
2797.86
2253.56
20074
33154.7
43864.9
49467.4
52917.3
54539.6
76269.1
75072.7
72445.5
71068.8
65676
61143.9
56029.8
2609.51
2282.77
18095.3
31878
42216
49472.9
52964.7
54553.1
76233.8
75048.3
74314.5
70918
67623.3
62569.6
56342.6
2994.44
2347.4
17967.3
31219.2
42153.5
48421.9
52946.3
54582.4
76191.2
75000
74263.7
70782.5
68477.4
62751.7
56881.4
5031.12
2296.03
17935.3
31213.5
41333
48422.6
52915
54569.6
76138.5
74952.6
74194.8
72080.9
68454.4
62813.8
57167.2
11592.5
2560.1
18093.6
31264.7
40960.7
48410.6
52910.8
54559.1
76115.5
74918.6
74159.1
72047.6
68378
62674.5
57070.7
9941.52
16165.4
18603.3
31348.6
40978.8
48418.2
52906.5
54561
76092.9
74900
74171.5
70661
68309.9
62422
56311.6
3399.85
2334.3
18434.2
31344.7
41375.6
48435.8
52929.6
54565.6
76080.6
74875.7
72231.1
70829.2
67418.1
62277.6
55993.4
3200.39
2319.02
18110.3
31292.5
42170.6
49450
52941.4
54530.3
76088
74899.8
72305.1
67931.3
65617.9
58078.4
54028.3
3020.54
2295.76
18896.3
33127
43847.5
49445
52893.2
54515.1
76123.9
74937
72423.6
68031.5
65742.8
58252.8
54151.1
3013.51
2370
20031
35652.5
43814
49438.3
52876.4
54509.8
76166.5
74983.5
72501.9
68159.4
65897.5
58410.8
54275.4
2418.66
2381.12
23214.8
35583.9
43827.5
49450.2
52877.4
54514.5
76192.2
75014.7
72543.6
68215.5
65958.5
58487.6
54266.5
2762.07
2404.52
23385.1
35634.1
43830.1
49463.4
52883.5
54519.6
73538.5
71939.1
68539.4
62517.9
52131.7
42446.9
17825.6
2263
2183.26
25494.7
37270.3
45284.6
50641.3
53863.7
55401.2
73496.2
71887.6
68461
62399.3
51940
42238.1
17838.1
2250.12
2199.01
25179.6
37261.4
45253.6
50613.1
53846.9
55387.2
73421.8
71805.7
68339.7
62244.7
51668.8
41765.8
17637.1
2239.24
2221.55
20620.2
37131.1
45216.4
50572
53820
55363.6
73333.5
71724.2
68172.8
62065.5
56052.3
41369.2
17628.5
2269.34
2252.09
20397.5
33359.9
45100
50502.6
53782.8
55335.5
73257.2
71646.1
68071.2
64603.9
55987.2
45220
24090.5
2283.91
2269.97
17485.5
31504.6
42390
50416.1
53766.8
55308.2
73190.7
71550.8
69684.2
64517.9
58197.4
47264.1
25318
2280.45
2283.35
17333.2
30492.4
42203
48543.7
53725.4
55298.1
73109.3
71448.8
69653.2
64372.9
59157
47612.8
27497.4
2273.99
2218.43
17200.9
30404.7
40859.4
48472.5
53674.7
55266.7
73035.8
71373.8
69573.3
65689.8
59030.6
47550.7
26757.4
2250.21
2336.11
17241.3
30390.8
40224.6
48437.7
53655.2
55252.4
73006.3
71333.8
69520.4
65622.7
58901.2
47228.9
26047.8
2312.42
2280.88
17394.5
30438.3
40233.9
48450.6
53657
55251.1
73000.6
71343.4
69519.2
64183.6
58859.8
46917.3
25071.3
2301.47
2334.82
17567.5
30488
40896.5
48500.5
53693
55268.6
73006.4
71377.2
67764.1
64354.3
57864.3
46796.9
24810.1
2280.45
2276.74
17440.5
30541.8
42247.2
50363.5
53723.8
55267.5
73050
71430.9
67865.1
61756.3
55776.7
41272.2
19264.6
2272.06
2291.89
18524.2
33279.4
45043.3
50451.9
53736.2
55290.8
73124.4
71507.4
68047
61978.9
51488.5
41555.9
17742.5
2264.97
2377.28
20596
37129.1
45182.4
50532.9
53778.2
55320.5
73194.4
71589.8
68177.6
62151.7
51770.2
41977.4
17830.8
2254.04
2388.84
25127.1
37348.6
45256
50594.9
53815.6
55350.1
73235.4
71641.5
68258.3
62267
51939.5
42254.3
17950.1
2266.39
2414.74
25488.6
37460.5
45312.8
50638.1
53839.2
55368
72875.5
71212
67648.9
61496.6
50917.4
39190.7
6231.26
2276.92
2258.72
31443.1
42552.2
49828.1
54442.9
57139.9
58417.4
72815
71137.6
67529
61278.7
50617.4
38579.8
4670.68
2247.41
4136.35
31656.1
42611.9
49756.6
54389
57106.4
58390.8
72711.4
71019.8
67350.3
61017.4
50707
37209.9
6746.98
2263.78
2217.91
24393
42476.8
49675.4
54293.7
57047.9
58344.9
72585
70897
67174.1
60831.4
52788.1
36301.2
8253.49
2265.61
2241.79
24125.7
37523.6
49465.4
54156.6
56965.1
58286.6
72469
70791.2
67101.3
62220.2
52443.6
38825
17233.1
2281.46
2269.97
19931
34913.1
45960.9
54033.7
56906.1
58229.9
72367
70685.9
67883.9
62013.5
53836.3
40083
17959.5
2276.75
2283.14
19600.7
33437.3
45646.4
51541.8
56868.9
58196.6
72248.5
70542.5
67783.8
61813.7
54368.5
40070.7
18274.4
2286.57
2278.74
19253.5
33224.7
43808.7
51401.2
56810.1
58154.9
72155.2
70434.2
67675.3
62654.9
54120.9
39781.4
17724.9
2289.54
2298.19
19135
33105.5
42911.9
51340.2
56779.7
58135.6
72111.9
70383.2
67607.8
62558.3
53960.9
39477.6
17109.9
2182.72
2325.88
19275.3
33085.7
42895.1
51350.7
56781.6
58131.2
72116.4
70401.4
67586.3
61555.6
53981.3
39417.3
17190
2383.25
2295.94
19438.4
33162.6
43802.1
51426.8
56817.4
58152.5
72142.1
70430.3
66662.1
61759.2
53387.8
39568.2
17298.8
2274.6
2305.98
19562.6
33364.7
45688.9
53942.1
56838.3
58168.5
72220.7
70510.3
66747.3
60369.8
52202.1
36369.5
16787.7
2277.11
2316.85
21242.5
37228.7
49352.1
54067.7
56890.1
58217.8
72336.2
70636
66958.4
60636.8
50381.8
36542.1
7035.05
2270.94
2386.09
24236.7
42407.6
49596.2
54222.5
56978.6
58276.6
72440.2
70763.3
67165.8
60956.8
50393.2
38542.2
5304.42
2241.64
3476.31
31791.1
42679.1
49726.5
54347.7
57050.1
58329.3
72502.5
70843.2
67298.9
61189.8
50653.9
39217.6
5469.26
2221.47
4062.64
32182.8
42866.7
49856.9
54429.7
57094.2
58361.2
74682.5
73429.6
70769.3
66479.2
57704.3
47402.7
12708.1
2257.12
30286.3
48281
52728.2
57673.5
60600.9
62319.9
63155.8
74605.3
73328.6
70599.5
66113.4
56841.9
46469.1
2830.36
2286.94
28825
47713.4
52584.5
57510.3
60517.5
62271.7
63119.8
74476.9
73174.9
70369.8
65607.1
58411.2
43862.9
13244.1
2275.65
8277.59
36547.9
52492.6
57279.3
60359.1
62191.1
63059.1
74319.3
72989.2
70075.5
65194
57312.4
42299.7
14239
2284.95
2233.82
34353.6
46452.9
56990.7
60158.8
62084.5
62985.2
74169.6
72819.6
69895
64904.6
56269.6
42276.9
19404.2
2250.6
2246.23
27274.6
43009
52920.2
60049.7
62010.3
62921.9
74033.9
72689
69634.7
64349.3
56094.8
42097.3
19049.1
6471.42
2271.36
26284.5
40819.5
52537
57153.5
62019.8
62893.6
73880.9
72499.3
69361
63962.5
55831.7
41337.3
17910.9
2267.29
2319.96
25840.9
40398.9
50295.8
56988
61972.7
62853.1
73766.6
72356.9
69178
64018.1
55348.9
40701.3
17680
2408.26
2294.29
25152.8
40135.4
49169.2
56933.2
61943.3
62831.9
73706.5
72286.3
69085
63868.1
55105.6
40371.5
17095.7
2162.63
2364.62
25685.3
40017.1
49120.8
56928.8
61937.4
62822.7
73715.8
72311.1
69084.4
63582.7
55217.7
40620.2
18537.5
2113.57
2406.39
25512.6
40096
50229.4
56992.8
61952.7
62836.2
73759
72350.9
69282
63946.4
55399.1
41382.9
19560.2
2391.46
2337.18
25745.4
40527.9
52548.8
59923.2
61917.5
62840
73866.8
72494.9
69497.4
64503.5
56003
41379.6
18611
2325.52
2348.94
29044
45770.6
56808.1
60026.3
61978.7
62890.6
74017
72693.3
69851.7
65057.8
57830
42722.7
13622.4
2330.1
7950.71
35047.7
52312.4
57137.8
60245.4
62088.5
62961.9
74151.7
72868.2
70137.6
65684.8
56530.1
46459.6
4350.49
2352.89
29215.7
47849
52542
57427.3
60437.2
62181
63027.9
74234.7
72981.3
70333.3
66102.2
57305.2
47678.1
11144.7
2409.16
31551.3
48771.2
52916.3
57664.4
60557.1
62241.6
63069.6
78493.5
78000.9
77030.1
76551.2
75043.7
81514.9
112693
98765.6
85029.4
72621.1
67747.1
68312
68439.8
68784.9
69024.6
78407.6
77877.8
76824.1
76132.3
74016
80922
115115
84566.4
80300.2
71340
67210
67996.3
68319.4
68723.1
68983.6
78264.3
77685.8
76542.3
74830.8
73576.3
65936.1
63311.5
41929.5
48695.2
59694.5
66526.2
67392.2
68095.2
68625.6
68915.8
78084.3
77443.8
76094.6
74123.5
68489.5
60824.1
42346.4
5586.86
25412.6
56083.7
60953.7
66857.3
67828.7
68509.7
68838.3
77912.9
77219
75796.5
71834
67059.6
56827.6
34118.8
2241.7
13379.1
45213.8
56767.1
63091.4
67689.9
68431.7
68782.3
77760.5
77053.2
74312.4
71105.9
65032.9
54263.1
33834.1
2272.08
17789.2
41694.1
53752.6
62694.3
64953.4
68425.9
68778.3
77586.8
76837.9
73909.3
70612.1
63806.4
52471.1
29895.9
2297.88
2313.99
38742.4
52855.9
60232.6
64829.5
68397.2
68749.3
77456.2
76672.8
73673.1
69696.3
62989.4
50975.4
27225.2
2294.6
2276.48
38214
52523.3
58958.3
64842.8
68381.8
68732.8
77376.1
76572
73534.7
69459
62499.7
49993.3
26404.1
2278.05
2871.16
39121.1
52390.5
58910.5
64822.5
68362.1
68715
77378.8
76583.9
73541
69955
62567.7
49756.7
25662.3
2341.29
2366.85
38223.3
52559.1
60149.3
64807.1
68354.9
68711.9
77424.1
76639.6
74983.6
70358.3
63712.5
51811.4
28835.6
2257.28
12327.9
40483.8
53391.3
62666
67555
68321.5
68683.6
77551.2
76847
75363.2
73195.7
66326.3
58013
34079.4
2313.37
12796.9
47476.2
59853
66638.9
67663
68377.3
68719.3
77725.9
77109.9
75891.2
74100
72710.9
61950.2
49099.9
34395.1
42866.1
57221.3
66225
67179.9
67934.2
68487
68787.6
77879.9
77333.4
76251.3
75552.8
73436.6
80230.4
113568
82588.3
80181.5
71083
67027.6
67838.5
68182.8
68590.2
68856.3
77974.9
77477.1
76502.5
76145.6
74659.1
82436.9
117043
106548
86261.4
72852.8
67747.7
68214.3
68332.8
68660.5
68900.9
83226.3
83513.5
84080.8
86681.5
90838.3
96043.4
121270
123768
106975
89382.8
81816
78642
76376.1
75530.4
75198.9
83158.6
83416
83959.7
86591.8
90738.2
96825.6
127163
132947
108951
89547.5
81496.1
78416.6
76287.3
75477
75166.5
83033
83204
83764.2
85119.4
89359
92384.4
116492
146018
113288
88078.4
80534.1
77712.1
76094.1
75382.5
75109.6
82865.8
82964.5
83279.7
84272.4
83801.2
89678.7
109882
150415
109837
85451
77908.1
76940.5
75821.4
75274.5
75044.7
82707
82746.4
82879.3
81245.1
81921.8
81847.5
85632.8
126898
90110
77021.5
74719.9
74585.1
75635.8
75205.1
75001.8
82576.4
82500.3
80864.9
80520.2
78787.5
76813.8
71157.8
27730.4
63841.6
70963.9
72012.3
74249.8
73764.8
75139.2
75007.8
82416.6
82294.1
80523.7
79975.8
76760.1
74284
65244.3
2407.77
26147.2
65519.4
71001
72640.9
73751.1
75110.1
74994.2
82288.3
82137.8
80287.5
78368.6
75864.5
72169.2
59756.8
2280.34
6957.64
65510.1
70891
71734.5
73738.5
75105.5
74987.9
82187.4
82010.4
80115.5
78067.5
75161.9
70478.6
57625.9
15042.6
1187.69
65030.4
70951.4
71727.6
73724.5
75071.9
74956.2
82161.2
81995.1
80061.5
79131.6
74937.3
69353.1
43197.5
12064.9
29765.4
67060.2
71208
72610.2
73711.2
75063.8
74934.8
82173.5
82108.9
82000.7
79532.8
76763.4
72336.2
61697.5
13081.6
59948.4
71426.8
72032.4
74198.7
75504.5
75086.9
74890.1
82282.4
82306.9
82458.9
83203.7
81189.1
84657.6
90047.7
136979
89493.3
79177.1
76778.4
76726.8
75645.7
75124.4
74905.4
82439.4
82561.7
83011.7
84237.6
88215.8
90333.4
113710
147354
111152
86635.1
80141.6
77447.5
75894.3
75211.9
74952.3
82572.9
82802.1
83275.3
85822.9
89797.8
95608.7
125599
130521
107728
88852.6
81158
78162.3
76091.9
75302.2
75003.5
82650.3
82927
83444.9
86134.6
90163.5
95348.3
119924
118582
105732
89226.1
81600.8
78440.5
76198.9
75358.3
75035.6
87594.1
88248.6
89297
91738.1
96261
96161.3
102377
107506
100850
93474.5
89097.5
85481.9
82700.1
81413.6
80777.4
87587.7
88249.7
89369.1
92152.5
96929.7
97483.1
104529
111563
103435
94584.7
89497.7
85613
82744.7
81417.1
80780.4
87552.3
88141.5
89514.8
91927.5
96465.3
99338.1
105647
117741
104613
96358
89267
85419.7
82754.5
81392
80775.2
87472.7
88032.1
89316.7
92024
93695.5
101230
113396
129265
114075
97514.5
89271.2
85189.7
82689.6
81356.1
80764.4
87377.7
87899
89093.7
89680.3
93517.9
99775
115448
147482
120741
98957.7
88819.4
84305.7
82619.9
81339.1
80761.9
87283.1
87646
87565
89193.7
91415.4
97903.4
117662
155639
123796
99292.1
88702.5
84382.2
81804.8
81259.3
80785.3
87178.6
87509.9
87425.6
88881
90167.2
96997.3
115889
169348
141202
102389
89476.5
84147.4
81898
81275.1
80802.8
87082
87397
87249.8
87666.1
89567.4
95789.1
112795
172250
192711
106484
90351.8
84112.5
81909.2
81283.4
80811.4
86965.5
87263.9
87068
87387.9
88993.2
94682.5
112384
168498
158123
105260
90274.3
84088.4
81878.1
81230.9
80758.4
86890.8
87195.9
86913.1
88021.5
88679
93817.1
111735
171469
136660
102532
89535.7
84059.9
81809.6
81174.5
80702.6
86854.7
87285.6
88232.7
88354.1
89664.3
94277.6
109984
153953
129034
100324
88838.6
84246.1
82498.1
81216.3
80638.7
86887.3
87377.2
88494.1
90917.8
92107.8
99463.1
112092
143943
120325
98562.9
88883.5
84983.9
82512.2
81194.1
80608.8
86943.1
87483.6
88734.9
91003.1
95336.1
98798.9
107338
120657
105877
96490.4
88917.3
85150.5
82534.9
81198.6
80594.4
86973
87600.5
88618.8
91296.7
95845.8
96154.9
103245
109943
102462
93914.8
89082.7
85298.6
82508.5
81209
80587
86982.4
87621.4
88562.4
91004
95216.8
94650.5
100222
104722
100139
92966.3
88657.9
85196.6
82466
81203.3
80579.8
90849.4
91446.2
92304.1
93334.3
96396.5
95967
96859.8
100436
95577.9
93535.4
91477.1
88988.6
86937.9
85839.6
85202.5
90915.7
91548.6
92477
93901.4
97123.8
96936.7
98196.5
100343
97398.1
94596
92156.6
89339.9
87105
85917.9
85256