/*--------------------------------*- C++ -*----------------------------------*\
| =========                 |                                                 |
| \\      /  F ield         | OpenFOAM: The Open Source CFD Toolbox           |
|  \\    /   O peration     | Version:  v2012                                 |
|   \\  /    A nd           | Website:  www.openfoam.com                      |
|    \\/     M anipulation  |                                                 |
\*---------------------------------------------------------------------------*/
FoamFile
{
    version     2.0;
    format      ascii;
    class       volScalarField;
    location    "0.028";
    object      p;
}
// * * * * * * * * * * * * * * * * * * * * * * * * * * * * * * * * * * * * * //

dimensions      [1 -1 -2 0 0 0 0];


internalField   nonuniform List<scalar> 
449343
(
103999
104141
104379
104620
104737
104530
103785
102432
100522
98261.8
95941.8
93837.3
92141.6
90966.2
90367.2
103981
104123
104362
104603
104721
104513
103769
102418
100511
98252.2
95932.8
93827.1
92129.2
90951.8
90351.7
103964
104107
104347
104589
104707
104498
103754
102406
100503
98249.1
95931.6
93823.9
92121.8
90940.6
90338.4
103947
104090
104332
104575
104693
104481
103738
102391
100493
98245.5
95932.3
93822.7
92115.4
90929.1
90324.4
103929
104074
104316
104559
104675
104458
103713
102368
100477
98236.3
95928.4
93817.6
92104.6
90913.1
90304.9
103908
104054
104297
104539
104652
104429
103681
102336
100450
98217.2
95914.2
93802.2
92083.7
90886.9
90276
103884
104029
104272
104512
104622
104393
103640
102293
100410
98182.7
95881.4
93770.5
92048
90847.8
90235.4
103855
104000
104242
104479
104586
104351
103591
102239
100353
98129.1
95829.2
93718.5
91995.5
90795.1
90182.6
103822
103966
104205
104440
104545
104305
103542
102185
100293
98060.7
95757.9
93648.2
91928.4
90730.7
90119.7
103786
103928
104165
104397
104501
104258
103492
102128
100227
97983.9
95677.8
93566.9
91852.2
90659.4
90051.1
103748
103889
104124
104354
104456
104214
103444
102075
100163
97908.7
95595.2
93484.3
91774.8
90587.3
89981.9
103712
103851
104083
104311
104414
104173
103403
102028
100107
97841.9
95519.8
93408.1
91702.8
90519.9
89917.1
103678
103816
104046
104273
104375
104137
103365
101987
100058
97784.7
95455.6
93343.1
91640.9
90461.5
89860.7
103648
103785
104014
104240
104342
104105
103332
101952
100017
97738
95404.9
93292
91591.9
90414.6
89815.2
103623
103760
103988
104213
104315
104078
103305
101923
99986.4
97704.2
95369.2
93256.4
91557.2
90381.1
89782.2
103842
104031
104369
104762
105061
105077
104467
103054
100893
98295.3
95678
93375.7
91570.6
90342.1
89722.5
103824
104013
104353
104747
105047
105062
104453
103043
100886
98290.9
95673.9
93368.9
91560.1
90328.9
89707.7
103807
103998
104339
104735
105037
105050
104442
103036
100886
98299.1
95683.6
93372.8
91556.6
90319.7
89695.5
103790
103982
104326
104725
105026
105035
104424
103019
100882
98308.3
95699.1
93381.8
91555.2
90310.7
89683.3
103772
103967
104313
104714
105014
105007
104398
102997
100858
98311.5
95712.7
93387.8
91549.4
90296.3
89664.5
103752
103948
104298
104700
104998
104981
104363
102966
100840
98300.5
95711.9
93382.4
91532.3
90271
89635.6
103729
103925
104276
104678
104968
104951
104323
102919
100799
98273.6
95700.4
93358.9
91497.7
90231.5
89593.7
103700
103896
104246
104646
104932
104907
104267
102811
100729
98213.1
95646.1
93304.4
91442.1
90176.3
89538.6
103667
103862
104209
104605
104888
104858
104217
102800
100666
98137.1
95562.3
93225.3
91369.9
90108.1
89472.9
103630
103823
104166
104558
104843
104804
104162
102738
100590
98042.5
95453.4
93128.2
91286.6
90032.8
89401.5
103592
103783
104122
104509
104792
104756
104117
102683
100516
97954.7
95352.7
93032.6
91202.7
89957.6
89330.4
103555
103743
104078
104462
104744
104721
104078
102639
100471
97879
95262.4
92946.6
91126.3
89888.2
89264.4
103521
103708
104040
104420
104703
104686
104045
102605
100424
97815.3
95188.5
92875.2
91061.5
89828.7
89207.4
103492
103677
104006
104385
104667
104652
104012
102569
100381
97762.9
95131.6
92820.4
91010.9
89781.3
89161.6
103467
103651
103980
104357
104639
104624
103985
102540
100349
97726.6
95093.5
92783.2
90975.6
89747.5
89128.6
103440
103738
104303
105058
105826
106408
106210
104640
101808
98324.4
94978.1
92227.9
90186
88845.4
88183.1
103422
103720
104288
105046
105816
106397
106199
104635
101811
98333.3
94985.7
92228.6
90179.8
88834.6
88170
103405
103705
104277
105041
105816
106395
106192
104642
101831
98372.2
95022.5
92248.6
90184.6
88829.8
88160.6
103388
103692
104270
105041
105822
106390
106166
104643
101830
98417.4
95081.6
92282.6
90194.3
88826.1
88151.7
103371
103678
104264
105043
105823
106352
106092
104565
101785
98471.6
95139.4
92314.4
90199.7
88815.6
88134.4
103352
103664
104259
105043
105829
106321
106043
104539
101782
98493.8
95190
92332.9
90189.2
88791.4
88104.4
103329
103643
104240
105033
105798
106300
105998
104490
101737
98469.4
95271.5
92324.2
90158
88749.3
88058.8
103301
103615
104213
105005
105767
106265
105960
104411
101645
98393.6
95200.4
92260.2
90094.4
88687.7
87997.9
103267
103580
104174
104960
105713
106197
105873
104338
101560
98297.5
95094.2
92163.5
90010.1
88610.8
87925.6
103230
103539
104127
104899
105667
106128
105811
104261
101460
98173.2
94868.3
92028.8
89908
88526.8
87848.4
103192
103496
104073
104836
105595
106086
105780
104197
101366
98041.9
94710.2
91903.4
89811.5
88445.3
87773.4
103155
103454
104023
104778
105535
106064
105795
104218
101356
97923.5
94583.3
91796.6
89725.8
88372
87705.1
103122
103418
103980
104727
105482
106027
105782
104185
101329
97841
94480.8
91710.2
89655.6
88310.3
87646.9
103093
103386
103945
104687
105437
105987
105750
104144
101279
97772.3
94408.8
91647.9
89602.2
88261.8
87600.6
103068
103361
103917
104657
105406
105957
105723
104113
101243
97729.8
94365.3
91607.8
89565.7
88227.6
87567.3
102666
103120
104028
105366
107000
108632
109613
107741
103427
98084.5
93505.4
90137
87818.5
86367.3
85671.4
102646
103103
104014
105357
106996
108630
109600
107748
103446
98114.7
93530.6
90147.5
87817.5
86359.6
85660.5
102627
103087
104006
105361
107014
108649
109612
107795
103526
98223.5
93612.5
90189.1
87832.6
86360.4
85654.7
102609
103074
104006
105383
107048
108701
109464
107852
103525
98422.4
93764
90257.5
87856
86363.1
85649.7
102589
103061
104008
105402
107090
108644
108689
107546
104296
98634.7
93925.4
90333.8
87872.2
86355.4
85632.7
102570
103051
104024
105466
107163
107849
108561
107522
104359
99869.2
94108.1
90389.8
87868.4
86326.8
85598.3
102545
103032
104015
105468
106483
107857
108497
107454
104301
99856.9
95303.1
90368.9
87824.4
86275.3
85544
102517
103007
103995
105446
106448
107838
108468
107284
104200
99767
95191.1
90282.6
87750.4
86204.1
85472
102484
102970
103950
105395
106398
107769
108370
107253
104082
99633.6
95077
90163
87640.5
86111.6
85390.9
102449
102926
103891
105317
106994
107668
108294
107184
103965
99489
93632
89990.1
87523
86017.8
85307.2
102412
102880
103819
105196
106851
108362
108364
107138
103868
98065.5
93358.6
89822.5
87413.5
85933.4
85229.3
102378
102839
103761
105119
106754
108365
109054
107354
102924
97795
93150.8
89684.2
87322.6
85858.9
85160.1
102347
102803
103713
105052
106678
108288
109188
107294
102959
97613.4
92993.3
89585.1
87250.6
85797.1
85101.9
102320
102772
103675
105003
106619
108230
109147
107233
102874
97502.6
92899.6
89517.2
87196.6
85748.8
85055.9
102297
102748
103648
104971
106583
108195
109128
107201
102836
97452.2
92849.9
89475.4
87160.2
85714.8
85022.9
101319
101945
103245
105317
108221
111859
115775
113151
105853
96804.8
90543.7
86689.9
84264.2
82833.3
82175.9
101296
101924
103229
105308
108223
111869
115769
113162
105902
96875.8
90590.2
86708.5
84267.3
82828.5
82167.4
101272
101903
103218
105317
108265
111931
115807
113223
106073
97061.5
90717.5
86765.5
84289.9
82834.1
82165.2
101246
101885
103219
105378
108434
112140
113513
113389
107762
97758.9
91050.1
86879.4
84323.8
82841.9
82162.2
101215
101861
103224
105426
108523
110623
113524
113419
108021
100123
91364
86982.2
84342
82829.8
82142.3
101190
101855
103269
105629
107648
110814
113573
113365
108085
100429
93578
87085.6
84308.6
82791.5
82097.7
101156
101819
103235
104998
107684
110894
112593
112609
108312
101368
93732.7
88866.2
84186.9
82702
82024
101130
101801
103277
104981
107697
110881
112552
112484
108193
101259
93662.6
88811.3
84175
82606
81941.2
101097
101760
103177
104932
107638
110808
112441
112346
107971
101036
93436.3
88644.3
83944.1
82504.2
81845.6
101071
101731
103137
105481
107491
110636
112403
112226
107776
99819.7
93063.6
86533.5
83865.8
82423
81761.5
101043
101686
103041
105227
108287
110415
113138
112774
107232
99468.8
90537.5
86303.7
83781.7
82340.3
81685.6
101018
101654
102981
105124
108151
111799
113105
112878
107242
96879.9
90251.1
86180.1
83704
82274.4
81620.6
100996
101625
102933
105020
107946
111579
115389
112768
105430
96340.3
89995.1
86079.1
83643.2
82218.5
81566.1
100974
101599
102899
104967
107862
111484
115336
112676
105296
96199.4
89892.9
86019.5
83596.1
82174.1
81522.6
100954
101578
102873
104935
107822
111438
115315
112633
105244
96132.7
89840.1
85981.6
83563.1
82142
81490.8
99151
99898.8
101514
104283
108694
115643
121307
126747
113188
92145.1
84880.7
81333.8
79267.3
78171.5
77705.9
99122.6
99871.6
101490
104268
108697
115654
121303
126755
113227
92236.4
84936.3
81353.9
79272.4
78169.1
77699.7
99085.5
99836.2
101461
104247
108708
115703
121314
126806
113338
92399.8
85026.2
81388.7
79293.1
78176.5
77700
99043.5
99803.4
101449
104299
109090
113550
121459
127033
113615
97150.2
85405.2
81435.3
79323.8
78188
77699.6
98989.9
99745.3
101398
104352
107867
113840
121825
124765
115265
98372.7
88919.2
81490.5
79271.2
78155.9
77673
98946.8
99699.8
101436
103933
107975
112918
120073
123855
115679
100933
89272.4
83948.1
79156.8
78065.9
77610.4
98894
99636
101403
103957
108109
112940
119146
123821
116110
101883
90940.4
83931.5
78975.6
77926.5
77510.5
98856.1
99584.4
101391
103991
107435
112402
119101
123627
115737
101518
90653.6
83746.4
80806.6
77773.5
77406.3
98836.4
99576.5
101339
103927
107391
112823
118998
123389
115291
101029
90289.2
83468.1
78633.3
77686.5
77303
98830.4
99582
101317
103798
107959
112790
118857
123229
114997
100607
90003.5
83261.2
78587.3
77629.4
77224.9
98820.9
99576.6
101227
104171
107683
113680
119606
124072
114271
99212.4
87953.7
80564.8
78579.4
77588.8
77159.6
98820.8
99578.2
101220
104067
108850
113322
121153
126508
112775
96346.6
84367.1
80579.9
78606.1
77553.8
77104.9
98814.2
99564.6
101188
103971
108424
115402
120985
126353
112701
91536.4
84195.5
80614.7
78580.6
77510.1
77057.2
98805.3
99553.5
101171
103947
108369
115309
120919
126305
112654
91495.6
84172.4
80607.2
78553.3
77474.1
77018
98791.2
99538.4
101153
103920
108326
115262
120900
126279
112618
91443.8
84135.9
80584.9
78528.3
77445.6
76988.2
95944.4
96664.9
98274.3
101205
106200
113067
129590
159594
117068
84363
74512.6
73323.1
72654.5
72453.2
72405.2
95907.2
96627.2
98236
101166
106168
113039
129546
159560
117074
84415.8
74552.6
73333.2
72661.4
72454.3
72402.2
95850.3
96563.3
98161.5
101068
106034
112999
129433
159493
117184
84627.2
74557.4
73344.2
72677.4
72462.7
72406
95779.1
96487.9
98081.1
100833
105417
113347
129414
159364
117464
85270.2
78339.7
73230.3
72697
72470
72413.5
95682.8
96364.2
97857.9
100893
105419
112462
126500
159312
119633
90180.8
78627.3
75682.4
72553.6
72429.5
72383.5
95588.8
96196.7
98317.5
100926
105155
112427
125130
154560
125769
93348.8
81355.8
75661.9
74291.2
72283.6
72308.2
95519.7
96120.2
98285.7
100895
105158
112001
125056
154615
126300
93731.7
82632
77221
74155.8
72176.4
72209.9
95461.4
96062.2
98316.1
100892
105132
111954
124993
154401
124611
92544.9
82084.4
76906.6
73984.5
72056.8
72076.8
95463.5
96064.6
98239.4
100883
105125
111924
124939
154147
123140
91146.6
81347.5
76525
73725.8
71918.5
71981.3
95475.1
96082.3
98218.2
100795
105090
111913
124930
154033
122531
90364.4
80803.7
76207.2
73572.8
71803.6
71885.8
95516.8
96203.4
97702
100735
105270
112341
124997
154060
122290
89994.2
79317.2
74480.4
71738.3
71795.8
71823.7
95561.7
96270.3
97863.1
100628
105111
113100
126369
159047
116594
88088.7
77004.6
72238.9
71903.5
71785
71777.2
95580.4
96297.1
97901.3
100814
105797
112778
129249
159170
116541
83792.5
73666.7
72509.8
71917.3
71759.5
71733.2
95592.3
96313.9
97927.1
100866
105884
112785
129279
159242
116535
83736.5
73742.9
72547.1
71910.5
71732
71695.8
95586.1
96308.9
97923.4
100863
105874
112755
129291
159254
116554
83700.4
73753.4
72553.5
71893.2
71705.7
71666.4
91640
92076.1
93047.8
94831.8
97766.6
104497
111904
109452
24370.3
54042.3
59639.6
62852
64869.3
66135.3
66713.7
91594.6
92027.8
92994.6
94767.3
97706.6
104429
111838
109311
24167.4
54079.9
59652.3
62874
64891.7
66145.3
66717.8
91519.2
91939.1
92893.1
94666.4
97558
104281
111679
109095
24194.4
54367.3
59771.8
62984.7
64948.6
66174.8
66737.1
91418.9
91808.7
92734.3
94342.1
98818.7
103808
111333
108727
25867.1
55286.2
61633.9
63304.2
65057.4
66216.7
66772
91284.9
91639.6
92477.6
95458.1
98524.6
104182
112034
108231
32481.7
60525.6
63993.4
64938.5
65223.9
66265.3
66782.4
91136.7
91469.2
93588.9
95302.9
98972.4
104395
111791
107800
47322
63934.2
65900.5
65201.4
66405.7
66292.1
66746.7
91062.9
91385.7
93530.2
95192.2
99197.7
104311
111701
107793
61720.4
65834.2
66280.2
66236.1
66308.3
66258
66691.7
91012.2
91323.6
93465.8
95812.5
99168.6
104273
111701
107952
35830.2
62597.1
65479.7
66491.8
66171.7
66163.6
66578
91007.7
91332.6
93443.1
95783.1
99152.3
104271
111741
108181
26786.1
59350.8
64320.9
65990.2
65900.7
65990.8
66461.6
91024.6
91360.5
93469
95141.3
99141
104302
111815
108397
25949.1
58120
63504
65040.6
65651
65805.7
66319.9
91117.8
91475.8
92320
95244.7
98903.9
104366
111940
108606
24817.6
57523.7
62924.6
63711.5
64422.7
65623.5
66210
91197.5
91592.3
92530.2
94154.4
98558.9
103411
111072
108959
24417.8
55457
60176
62265.5
64223.2
65516.2
66124.4
91247.3
91672
92637.1
94434.1
97353.8
103899
111434
109084
23950
53472
58825.9
62114.1
64175.4
65462.6
66056.7
91275.2
91712.6
92689.4
94480.2
97448.7
104167
111612
109200
23834.8
53407.3
58850.3
62091.8
64139.1
65419
66006.9
91276.9
91717.4
92699.1
94501.9
97463.8
104211
111667
109261
23764.6
53416.7
58911.7
62095.6
64111.9
65387.1
65972.3
86512.2
86421.3
86217.9
85912.7
85889.3
89954.8
93697.5
106855
5877.58
32918.4
45933.1
52948.9
57549.1
60244.9
61457.6
86463.8
86369.4
86162.2
85851.3
85841.7
89885
93629.8
106638
2581.03
32972.4
45941
53006.4
57589.8
60265.6
61471.4
86385.8
86282
86068.2
85792.9
85758.5
89740.1
93479
106493
4326.39
33254.3
46182.3
53191.3
57692.1
60328.7
61515.2
86286
86152.7
85935.3
85797
88490.9
89628
93193.1
106281
5388.84
33988.7
46742.6
53667.4
57894.6
60439.8
61591.9
86164.7
86010
85843.6
87758.6
88456.2
91396.7
94174
106156
2296.8
34854.5
48003.5
54726.1
58182.5
60590.2
61676.1
86037.9
85951.3
87397.2
87628.5
89643.2
92131.2
94001
105696
28572.4
37021.4
49134.5
54977.8
58930.4
60692.3
61716.4
85979.4
85904.1
87253.1
87563.4
90245.8
92024.5
93915.2
105639
25686
38843
49543.1
55429.9
58903.7
60681.4
61697.7
85933.8
85852.4
87178
88516.7
90186.7
91982.9
93906.3
105643
7661.78
36978.9
48978.4
55417.3
58745.7
60592.6
61601.7
85920.7
85847.2
87150.2
88489.9
90176.1
91987.2
93937.1
105732
3012.17
34540.1
48011
54990.7
58513.6
60415.1
61477
85920.3
85837
87180
87532.6
90198.3
92031.3
93994.5
105808
5247.23
33590
47295.8
54357.5
58294.3
60218.1
61311.6
85989.3
85839.2
85684.3
87524.2
89608.1
92135.8
94088.2
105906
4957.32
33138.6
46810.7
53619.4
57419.7
59987.5
61129.7
86054.3
85926.3
85721.5
85608.2
88356.3
89642.5
93308.5
106301
3292.86
32667.1
45844.3
52746.7
57114.3
59775.6
60971.3
86101.1
86002.3
85799.6
85544.9
85541.9
89520.7
93236.6
106284
2360.72
32574
45343.4
52381.6
56961.3
59645.9
60855.9
86129.8
86040
85844
85553.7
85571.3
89604.5
93382.2
106406
2528.02
32441.9
45259.1
52288.4
56874.9
59564.5
60779.8
86133.6
86047.5
85855
85570.2
85572.4
89664.3
93447.4
106472
2370.09
32371.3
45280.9
52238.5
56824.4
59519.4
60734.2
81266.2
80587.5
79180.1
76946.1
76595.1
75478
77996.2
2295.85
25005.8
38645.7
46889.7
52623.6
56072.4
57679.2
81218.7
80536.6
79126.5
76892.4
76533.9
75410.7
77930.2
2300.14
25047.8
38666.3
46953.1
52658.7
56093.9
57695.3
81149
80465.2
79041.8
76811
76491
75332.4
77799.1
2300.55
25016.5
38881.9
47082.7
52747.6
56161.2
57744.5
81073.5
80382
78942.3
76895.6
76712.4
75194.6
77567.9
2301.09
25199.1
38015.1
47448
52924.3
56285.1
57830.9
81001.8
80307.1
79002
78911.9
77205.2
77209.7
78177.9
2277.09
22862
37764.8
47283
53174.7
56453.2
57940
80934.5
80372.3
80422.3
79116.2
78500.1
78127.3
78078.3
2247.35
22720.1
37830
47424.1
53106.8
56507
58012.5
80893.9
80345.1
80334.3
79157.9
79250.1
78125.2
78046.9
2262.17
23596.9
38124.4
47304.9
53142.9
56483.2
57998.4
80849.4
80306.1
80285.5
79997.7
79318.2
78126.2
78063.5
4936.2
24231.7
38041.4
47136.3
53027.3
56410.6
57914.3
80830.2
80284.5
80256.2
79988.1
79305.8
78127.5
78087.9
2297.49
23491.7
37599.1
46872.1
52868.2
56266.1
57802
80804.9
80245.8
80262.3
79091.5
79205
78112.8
78082.6
2296.01
22829.3
37140.6
46657.3
52684.9
56113.6
57652.4
80809.6
80119.2
78825.9
78736.6
78371.5
78074.3
78082
2298.96
22574.4
36805.6
46583.1
52579.8
55933.9
57449.8
80820.7
80132.6
78701.7
76679.1
76575.6
75177.9
77206.2
2293.08
23181.1
37441.2
46796.2
52287.7
55702
57268.4
80839
80158.5
78743.9
76531.9
76234.2
75078.3
77528
2293.27
24467.3
38255.9
46417.7
52106.3
55538.3
57131.3
80857.2
80178.1
78775.9
76561.3
76246.9
75130.4
77655.4
2297.44
24681.1
38117.7
46326.4
52004.5
55437.6
57040.5
80858.7
80182.7
78782.7
76566.9
76213.2
75153.5
77716.6
2297.44
24780.3
38103.8
46245.1
51945.2
55383
56987.1
76824.2
75597.2
73027.3
68552.9
66225.6
58592.3
54285.2
2486.8
2296.33
23661.3
36495
44981.8
50872.2
54443.9
56155.6
76772.3
75539.4
72957.8
68466.2
66135.1
58485.8
54178.9
2276.34
2297.95
23762.8
36458.7
45022.3
50878.6
54452.1
56160.9
76696.7
75459.6
72845.7
68299.3
66000.2
58309.3
54034.3
2278.76
2295.59
20528.3
36601.3
45067
50918.7
54488.2
56187.1
76619
75381.2
72682.4
68157.5
65842.7
58069.9
53906.4
2441.17
2301.89
20991.1
34146.8
45178.7
51000.3
54563.1
56239.4
76559.3
75299.2
72548.6
71081.4
65524.2
60874.3
55702.1
3023.1
2290.07
18233.2
32860.4
43632.3
51096.9
54674.8
56309.6
76507.1
75252.5
74447.4
70874.2
67415.9
62137.5
55716.7
2874.74
2268.95
17583.3
32271.7
43670.8
50102.9
54698.6
56364
76455
75192.2
74377.8
70701.8
68224.5
62110.7
55762.4
2450.9
2301.35
18052.5
32491.9
42935.8
50138.3
54669.6
56344.4
76403.3
75149.1
74311.8
72052.3
68188.8
62142.7
55905
6299.63
4887.23
19079.6
32634.6
42557.9
50084
54615
56279
76382.6
75122
74286.9
72042.8
68172.8
62158.8
56047.4
2075.88
2276.8
19090.6
32508.2
42433.7
49982.1
54510.7
56186.7
76359.7
75108.1
74310.5
70659
68186.2
62102.3
55858.9
2262.2
2302.31
18610.9
32252.6
42632.2
49841.7
54399.5
56068.7
76341.4
75082.5
72335.7
70852.8
67326.5
62064.2
55695
2474.12
2296.18
18465.2
32056.5
43233.1
50667.5
54261.5
55892.9
76334
75095.8
72399.6
67889.2
65505.3
57864.6
53767.5
2944.44
2289.09
19241.5
33737.2
44712.8
50490.7
54064.9
55742
76349.6
75112.3
72500.5
67967.3
65607.3
57975.8
53783.2
2302.2
2297.02
20379.5
36128.6
44527.7
50361
53925.4
55623.5
76370.7
75136.5
72554.6
68073.1
65740.4
58121.7
53873.1
2359.74
2295.02
23626.4
35951.9
44460.2
50275
53837.4
55543
76374.7
75145.5
72573.4
68104.9
65781.5
58211
53966.5
2960.76
2295.49
23702.9
35967.6
44395.2
50230.9
53786.4
55493.1
74027.9
72372.2
68866.4
62686.8
52102.7
42440.7
17791.4
2298.61
2302.06
25662.4
38291.1
46490
52106.2
55487.1
57103.6
73962
72295.3
68757.4
62536.2
51878.3
42176.6
17655.6
2289.45
2302.17
25529.6
38147.5
46456.6
52072.5
55470.3
57090.6
73860.9
72182.6
68597.8
62329
51568.1
41650.7
17455.3
2282.39
2301.24
20949.6
37991
46425.7
52050.7
55459.2
57080.3
73745.7
72069.9
68382.1
62077.2
55949.1
41159.1
17443.5
2282.2
2302.29
21004.5
34172
46368.2
52036
55461.1
57086.9
73648
71961.4
68229.1
64596.7
55763.6
44867
23799.2
2289.46
2302.04
17563.7
32259.5
43659.6
52024.9
55513.6
57106.4
73569.5
71851.2
69842.7
64452.3
57895
46631.6
24583
2285.23
2282.82
17019.2
31294.5
43602.2
50179.6
55524.3
57135.6
73488.7
71748.4
69802
64298.7
58805.1
46617.4
24695.8
2271.64
2262.08
17396.3
31461
42357.5
50178.2
55495.7
57111.7
73425
71689.7
69739.1
65664.3
58706.6
46707.1
25088.8
2361.26
2291.29
17984.1
31615.5
41761.6
50151.2
55448.9
57061.3
73403.8
71662.2
69707.5
65638.3
58679.7
46742.4
25585
40392.8
2273.83
17912.9
31566.9
41699.6
50087.5
55367.5
56981.9
73398
71676.5
69720.3
64221.7
58722.9
46595.7
24842.8
2296.69
2276.73
17784.3
31418
42210.3
49987.9
55276.3
56886.9
73396
71704.2
67958.5
64397.7
57742.9
46529.5
24570.5
2277.99
2280.35
17758.2
31311.1
43359.4
51669.5
55152.7
56746.2
73419.3
71736.1
68037.6
61723
55604.8
40959.6
18947.8
2295.48
2282.82
18749.1
33845.7
45933.4
51575.7
55011.9
56635.9
73468.1
71782.4
68185.2
61904.8
51161.5
41175.6
17300.2
2284.07
2307.59
20809.9
37513.5
45906.8
51516.6
54926.3
56549.4
73511.2
71835
68279.7
62039.3
51377
41577.3
17332.8
2262.89
2301.13
25208.1
37518.7
45857
51465.6
54868.8
56491.2
73527.1
71859.5
68330.2
62119.2
51497.9
41850.4
17462
2269.4
2300.71
25379.9
37580.2
45842.3
51444.5
54832.2
56451.9
73539.2
71805.9
68110
61803.6
50692.7
39879.6
4352.83
2283.65
2547.59
32511.3
43778.1
51151.7
56061.5
58922.5
60284.3
73454.2
71703.8
67949.3
61520.9
50403.6
38698.8
4643.47
2286.95
2621.8
31955.3
43515
51025.3
55976.2
58879.7
60252.7
73324.2
71553.3
67727.8
61156.2
50515.9
37003.4
6747.45
2295.93
2304.12
24412.3
43284.4
50938.1
55888.3
58833.4
60219.5
73172.8
71400
67500.3
60868
52601.9
35832.9
7974.23
2295.94
2301.46
24418.3
38251.2
50807.1
55807.9
58792.1
60195.5
73040.8
71271.9
67375.8
62245.7
52130.7
38305.3
16908.1
2288.9
2296.2
20047.8
35658.6
47289.6
55784.4
58807.6
60188.3
72936.3
71162.3
68159.4
61988.3
53476.7
39306.5
16861
2297.36
2269.83
19587.3
34375.6
47190.2
53297.4
58840.8
60208.7
72830.1
71032.8
68062.7
61801.9
54017.6
39150
16900.6
2267.53
2294.73
20001.3
34572.3
45533.5
53281.2
58823
60185.2
72755.9
70952.1
67990.7
62716.6
53840.3
39191.4
17975.7
2326.05
2297.66
20523.9
34776
44738.1
53265.8
58780.1
60141.6
72728.5
70923.6
67954.4
62667.8
53776
39122.1
18153.4
2439.47
2315.54
20295.4
34691.7
44677.4
53207.7
58703.7
60063.9
72734.4
70948.5
67948.6
61693.5
53847.9
38976
17087.2
2291.94
2296.72
20091.3
34462.2
45389.9
53120.2
58616.2
59975.2
72748.9
70965.6
67031.7
61891
53228.3
39096.7
16817.3
2296.32
2297.3
20035.2
34328.1
46970.4
55436.5
58455.4
59838
72801.2
71010.4
67077.5
60399.9
51949.9
35824.5
16294.8
2285.01
2295.88
21355.2
37797.8
50361.5
55347.7
58343
59756.9
72883.7
71094.5
67232.2
60610
49924.9
35819.9
6690.4
2276.82
2340.09
24166.3
42704.3
50364.1
55330.5
58295.6
59691.1
72953.8
71181.4
67381.9
60887.3
49693.5
38066.5
4370.13
2253.15
2334.02
30906.1
42632.1
50323.8
55319.5
58260.7
59649
72986.7
71227.5
67472
61067.8
49826
38687.6
4075.43
2250.3
2850.03
31209.7
42793.3
50364
55329.5
58241
59621.6
75611.1
74277.2
71450.3
67016
57298.4
49343.7
3318.49
3756.62
29395.8
49397.7
53973.6
59195.8
62476.4
64359.1
65284
75509
74146.7
71232.1
66512.3
56666.3
46327
2319.07
2322.06
27136.9
47915.8
53485.9
58936.6
62338.1
64294.9
65239.5
75356.4
73959.8
70953.4
65846.1
58022.9
43125.4
11439.7
2357.69
4854.4
36328.9
53242.9
58688.6
62175.5
64225.6
65192
75179.5
73748.3
70615.8
65347.4
56974
41319.7
12865.4
2294.34
2303.37
34035.5
47073.4
58500.9
62037.5
64166.5
65157.6
75021.5
73567.5
70393.5
65029.7
55803.3
41292.7
18443.4
2298.82
2303.89
27034.7
43770.7
54456.5
62074.2
64181.9
65150.7
74893.6
73447.6
70131.1
64443.6
55660.8
41007.8
17854.3
2285.9
2301.87
26721.1
42125.2
54399.3
59194.3
64278.8
65186.7
74764.9
73289
69876.2
64099.3
55485.9
40348.1
17371.9
2285.77
2301.68
27940.6
42624.6
52496.5
59176.2
64280.8
65168.8
74680.2
73189.1
69750.7
64266.6
55120.9
39899.5
16529.5
2333.68
2318.35
29552.6
43217.1
51608.5
59199.3
64242.3
65127.8
74645.8
73156.2
69710.5
64196.1
54998.4
39606.6
15252.5
2176.74
2300.4
28790.7
42972.3
51511.6
59124.7
64155
65043.1
74661.7
73193.1
69739.5
63962.8
55172.4
39795.6
16324.2
2297.81
2302.71
27293.6
42241.5
52279.1
58996.5
64047.1
64956.8
74693
73212
69971.7
64295.5
55290.9
40518.9
17431.7
2287.69
2302.99
26657.6
41891.2
54137.3
61715.7
63826.1
64795.9
74769.5
73308.5
70114.6
64742.7
55705.1
40283.5
17353.5
2305.9
2300.65
28881.2
46379.5
58021.8
61563.8
63711.2
64709
74879.1
73453
70380.5
65161.7
57169.7
41413.6
12048.6
2294.02
10387
34417.9
52527.2
58050.8
61590.6
63674.2
64654
74973.1
73577.9
70587.8
65736.1
55702.1
44823.4
2316.47
2317.48
25100
46371.6
52420.4
58124.3
61628.1
63653.2
64622.1
75022.5
73649.7
70721.2
66067.5
56069.9
45816.9
2324.09
2312.64
25249.8
46998.9
52696.2
58238.9
61674.1
63648
64603.8
79790.3
79222.3
78055.1
77619.7
74742.3
84619.6
114339
107372
87203.2
74611.3
69254.5
70225.2
70686.6
71182.1
71512.4
79679.9
79063.2
77792.7
76809.8
73528.3
80091.1
100043
84257.1
78613.1
71989.3
68379.9
69773.2
70503
71104.1
71461.5
79518.2
78842.3
77474.7
75381.8
73220.6
64521.5
54478.9
24475.3
43184.8
58679.3
67439.8
69100
70266.2
71021.2
71408.6
79330.3
78590.4
77018.6
74668.3
68083.1
59014.8
37559
7111.49
21682.7
54315.4
61463.2
68766.6
70079.9
70961.2
71375.1
79160.6
78367.1
76712
72280.9
66566.9
55026.4
30635
2274.36
9044.91
43606.8
57508.8
64911.6
70120.2
70979.6
71378
79028.5
78241
75191.3
71518.3
64644.1
52306.8
27297.1
2307.49
11393.9
42502.7
55496.7
64909.5
67345.3
71059.1
71432.7
78890.2
78074.9
74832.1
71107.5
63553.8
50707.5
25746.6
2287.29
24793.4
46450
56352.9
62861.7
67369.5
71063.3
71416.7
78799.9
77968.7
74680.4
70340.1
63001.5
49947.9
25783.3
7784.89
62621.3
56325.7
57669
61906.5
67428.2
71027
71377.2
78758
77924.4
74628.2
70256.1
62847.2
49601.7
24242.7
2249.47
46182.9
52882
57157.2
61783.2
67348.2
70928.1
71282.3
78775.5
77957.5
74678
70928.2
63134.7
49954.4
23724.8
2294.28
9426.96
43624.5
55706.2
62613.5
67161.7
70807.4
71186.3
78808.7
77976.1
76226.3
71257.3
64180.9
51478.2
25726.8
2298.26
9499.59
42160.1
55244.7
64636.4
69751.5
70619.5
71018.6
78901.2
78123
76463.3
73945
66310.5
56160.9
29981.8
2470.62
8982.48
46585.8
60583.9
68297.1
69610.6
70503.3
70921.9
79029.7
78320.1
76870.3
74621.5
72213.6
59339.7
40357.6
18283.1
34135
55230
66705.3
68457.6
69685.2
70469.8
70868.3
79139.7
78488.1
77127
75907.2
72272.6
76087.8
94647.8
56782.8
71700.6
69179.9
67097.8
68899.7
69786
70460.7
70841.4
79199.9
78590.1
77309.7
76490
73324.8
78889.2
106285
71141.6
75497.4
70629.4
67584.8
69127.6
69863.9
70465.5
70828.2
84989.1
85227.6
85535.7
88275.1
90629.4
96919.2
116299
104372
107143
90678.6
83650.2
81128
79115.8
78393.9
78140
84901.8
85089.7
85401.3
87809.7
90386.6
97517.2
125879
116929
106013
90236.8
83044.9
80759.5
78982.6
78329
78099.6
84772.2
84872.2
85247.7
86371.7
89759.5
92006.4
115963
143070
110793
87123.2
82080.4
80010.9
78797.4
78259.6
78061.4
84615.6
84655
84834.4
85652.5
84026.3
88697.5
106055
139007
103173
84284.3
79026.1
79573.3
78651.2
78223.6
78045
84468.8
84448.4
84482.8
82394.5
82433.1
80547.3
78643.7
68226
74384.9
75088.8
76021.9
77023.5
78615.3
78235.7
78054.4
84362
84259.4
82367.2
81705.9
79198.5
75433.8
66241.7
3175.37
49655.6
71176.8
73948.6
76913.9
76603.9
78224.4
78093.2
84237.6
84103.8
82081.2
81296
77233.8
72742.1
55423.6
2290.65
36555
69322.8
73644.3
75292.1
76633.9
78190.9
78067.4
84153.1
84007.6
81939
79745.5
76686.1
71262.5
53446.9
2238.77
2514.17
67690.7
73476.3
74407.8
76592.6
78145.2
78022.2
84101.5
83948.2
81871.7
79649.9
76523.1
71115.2
54011.7
2278.82
2099.85
65202.7
73296.3
74335.5
76514.9
78043
77923.8
84105.3
83970.9
81891.9
81041.6
76764
72184.2
56063.9
2297.2
48001.8
70436.4
73680.4
75166.1
76425.1
77953.5
77828.3
84116.9
84056.6
83997.5
81386
78593.1
74467.9
64495.2
7169.9
57603
72899
74197.5
76685.3
78231.4
77860.4
77681.6
84196.9
84204.3
84307.3
85010.3
82347.2
84618.9
83577
71311.4
79024.6
79056.4
78485
79168.4
78199.5
77765.8
77586.9
84308.8
84391.9
84727.8
85775.6
89178.9
89771.3
112921
144602
110703
86190.4
81778.3
79537.4
78278.4
77728.3
77528.3
84401.6
84583.7
84898.9
87277.1
90615.5
97470.5
133080
141308
110933
90314.2
82608.1
80144.6
78365.7
77721.4
77495.9
84448.5
84683.6
85024.9
87686.9
91294.9
96976.2
129239
132999
111331
90815.7
82929.2
80338.4
78417
77718.4
77476.7
89901.8
90575.6
91376.3
94327.2
97286.5
97679.2
104637
109295
106228
95427.3
92053
88772.4
86054.2
84841.9
84243.8
89889.8
90547.3
91514.6
94609.7
98410.5
99664.4
110449
108932
106496
96718.7
92212
88828.2
86094.6
84841.5
84244.5
89868.9
90452.9
91772.6
94329.2
98888.7
101544
109045
120281
108790
99232.7
92476.3
88721.7
86171.7
84857.8
84266.3
89815.6
90388.7
91696.2
94520.2
96002.1
104192
118291
138834
118057
101049
92535.3
88745
86245.7
84905.3
84308.3
89734.7
90262.3
91488.1
92004.5
95939.6
102272
118989
159000
127290
102450
92223
87855.4
86263.4
84942.1
84345.7
89654.5
90039.8
89876.2
91586
93825.2
100290
120664
185535
133362
103117
92042.4
87939.6
85337.6
84870.6
84372.4
89567.8
89918.2
89773.1
91328.4
92578.6
99701.5
120250
211610
135250
101779
91910.5
87386.2
85373.6
84829.3
84347.3
89502.6
89842.1
89654.2
90133
92174.3
98688.6
115126
174901
75777.6
95605.1
91257.6
87025.7
85259.9
84767
84297.5
89438.2
89773.4
89569.3
90001.9
91947.6
98267.1
114584
182139
108005
97475.7
91372.7
86940.1
85156.1
84655.5
84185.2
89412.6
89775.2
89516.8
90945.2
91965.6
98560.2
117554
195433
142888
103938
92091.5
87121
85068.3
84556.9
84076
89404.3
89901.4
91044.8
91308.9
93108.8
99083.9
118917
182366
134894
104172
92123.5
87527.7
85821.2
84526.9
83943.1
89431
89991.5
91267.5
94051
95486.1
104207
119029
155404
129570
103145
92507.1
88370.1
85784.3
84431.1
83833.1
89454.8
90050.5
91408
94018.4
99109.5
103622
115248
133217
114167
101656
92585.5
88421.6
85717
84344.2
83736.3
89455.9
90146.6
91251.3
94446.8
99565.4
101648
114173
121591
109681
98775.4
92749.5
88595.9
85633.7
84286.4
83663.4
89441.5
90158
91166.7
94180.3
99126.5
99757.9
109746
117539
109020
97982.6
92461.5
88505.3
85564.2
84237.5
83614.7
93740.6
94446.2
95114.6
96992.8
99695.4
100015
103270
113038
103876
97786.1
96311.5
93217.4
91008.4
89878.1
89212.7
93814.1
94534.6
95400.2
97513.7
100743
100835
105434
108055
104789
99017.9