/*--------------------------------*- C++ -*----------------------------------*\
| =========                 |                                                 |
| \\      /  F ield         | OpenFOAM: The Open Source CFD Toolbox           |
|  \\    /   O peration     | Version:  v2012                                 |
|   \\  /    A nd           | Website:  www.openfoam.com                      |
|    \\/     M anipulation  |                                                 |
\*---------------------------------------------------------------------------*/
FoamFile
{
    version     2.0;
    format      ascii;
    class       volScalarField;
    location    "0.028";
    object      p_rgh;
}
// * * * * * * * * * * * * * * * * * * * * * * * * * * * * * * * * * * * * * //

dimensions      [1 -1 -2 0 0 0 0];


internalField   nonuniform List<scalar> 
449343
(
103862
104004
104242
104482
104600
104392
103647
102295
100385
98124.5
95804.4
93700
92004.2
90828.8
90229.8
103863
104005
104244
104485
104603
104396
103651
102300
100393
98134.5
95815.1
93709.4
92011.4
90834.1
90233.9
103866
104009
104249
104491
104609
104400
103656
102308
100405
98151
95833.5
93725.8
92023.7
90842.5
90240.3
103868
104012
104253
104496
104614
104402
103659
102313
100415
98167
95853.8
93744.3
92036.9
90850.7
90245.9
103870
104015
104257
104500
104616
104399
103654
102309
100418
98177.4
95869.6
93758.7
92045.8
90854.2
90246.1
103869
104014
104258
104499
104613
104389
103642
102297
100411
98178
95874.9
93763
92044.4
90847.6
90236.8
103864
104010
104253
104493
104603
104373
103621
102273
100390
98163
95861.8
93750.8
92028.4
90828.2
90215.8
103855
104000
104242
104479
104586
104351
103591
102239
100353
98129.1
95829.2
93718.5
91995.5
90795.1
90182.6
103841
103985
104225
104460
104564
104325
103562
102204
100312
98080.3
95777.6
93667.8
91948
90750.3
90139.4
103825
103967
104205
104437
104540
104298
103531
102168
100266
98023.1
95717.1
93606.1
91891.4
90698.7
90090.3
103807
103948
104183
104413
104515
104273
103503
102134
100222
97967.5
95654.1
93543.1
91833.7
90646.2
90040.8
103790
103929
104162
104390
104492
104252
103481
102107
100185
97920.4
95598.3
93486.6
91781.3
90598.4
89995.6
103776
103914
104145
104371
104473
104235
103463
102085
100156
97882.8
95553.7
93441.2
91739
90559.6
89958.8
103766
103903
104132
104357
104459
104222
103449
102070
100135
97855.8
95522.6
93409.8
91709.6
90532.4
89932.9
103760
103897
104126
104350
104452
104215
103442
102061
100124
97841.5
95506.6
93393.7
91694.5
90518.4
89919.6
103705
103894
104232
104625
104924
104939
104330
102917
100756
98158
95540.6
93238.4
91433.2
90204.8
89585.1
103706
103896
104235
104629
104929
104944
104335
102925
100768
98173.2
95556.2
93251.2
91442.4
90211.1
89590
103709
103899
104241
104637
104939
104952
104343
102938
100788
98201
95585.5
93274.7
91458.5
90221.6
89597.4
103711
103904
104248
104647
104948
104956
104345
102940
100804
98229.8
95620.7
93303.3
91476.7
90232.2
89604.8
103713
103908
104254
104655
104956
104948
104339
102938
100799
98252.6
95653.8
93329
91490.6
90237.5
89605.7
103713
103909
104259
104661
104959
104942
104324
102926
100800
98261.2
95672.6
93343.2
91493.1
90231.7
89596.3
103709
103906
104257
104658
104949
104931
104303
102900
100779
98254
95680.8
93339.2
91478.1
90211.9
89574.1
103700
103896
104246
104646
104932
104907
104267
102811
100729
98213.1
95646.1
93304.4
91442.1
90176.3
89538.6
103686
103881
104229
104625
104908
104878
104237
102819
100686
98156.7
95581.9
93245
91389.5
90127.8
89492.5
103669
103862
104206
104598
104882
104844
104201
102777
100629
98081.7
95492.7
93167.4
91325.9
90072
89440.7
103651
103841
104180
104567
104851
104815
104176
102742
100575
98013.5
95411.5
93091.4
91261.6
90016.5
89389.2
103634
103822
104157
104540
104823
104800
104157
102717
100550
97957.5
95340.9
93025.1
91204.8
89966.7
89342.9
103619
103806
104138
104518
104801
104784
104143
102703
100523
97913.4
95286.6
92973.3
91159.6
89926.8
89305.5
103609
103794
104124
104503
104785
104770
104130
102686
100499
97880.7
95249.3
92938.1
91128.7
89899
89279.3
103604
103789
104117
104495
104776
104762
104122
102677
100486
97863.9
95230.8
92920.6
91113
89884.8
89265.9
103303
103600
104166
104921
105689
106270
106072
104503
101671
98187
94840.7
92090.5
90048.7
88708.1
88045.8
103304
103603
104170
104928
105698
106280
106081
104517
101693
98215.6
94868
92110.9
90062.1
88716.8
88052.3
103307
103607
104179
104943
105717
106297
106093
104544
101733
98274.1
94924.4
92150.5
90086.5
88731.7
88062.5
103310
103613
104192
104963
105743
106312
106087
104564
101752
98338.9
95003.2
92204.1
90115.8
88747.6
88073.2
103312
103620
104205
104984
105764
106293
106033
104506
101726
98412.8
95080.6
92255.5
90140.8
88756.8
88075.5
103313
103625
104220
105004
105790
106282
106004
104500
101743
98454.5
95150.7
92293.6
90150
88752.2
88065.1
103309
103623
104221
105014
105778
106280
105978
104470
101717
98449.8
95251.8
92304.6
90138.4
88729.6
88039.1
103301
103615
104213
105005
105767
106265
105960
104406
101645
98393.6
95200.4
92260.2
90094.4
88687.7
87997.9
103287
103599
104193
104979
105733
106217
105892
104358
101579
98317.1
95113.8
92183.1
90029.7
88630.5
87945.2
103269
103578
104166
104938
105706
106167
105850
104300
101499
98212.4
94907.5
92068
89947.2
88566
87887.7
103251
103554
104132
104895
105654
106145
105839
104256
101425
98100.8
94769
91962.3
89870.4
88504.1
87832.2
103234
103533
104102
104856
105614
106143
105873
104297
101435
98001.9
94661.7
91875.1
89804.3
88450.5
87783.6
103220
103516
104078
104826
105580
106125
105880
104283
101427
97939.1
94578.9
91808.3
89753.7
88408.4
87745
103210
103504
104063
104804
105555
106104
105868
104262
101397
97890
94526.5
91765.6
89719.9
88379.6
87718.3
103205
103498
104055
104794
105543
106094
105861
104251
101381
97867.2
94502.6
91745.1
89703.1
88365
87704.7
102528
102983
103891
105229
106863
108495
109475
107604
103290
97947.2
93368
89999.7
87681.2
86229.9
85534
102529
102985
103896
105239
106878
108512
109482
107631
103328
97997
93412.8
90029.8
87699.8
86241.8
85542.8
102529
102989
103908
105263
106915
108551
109514
107697
103428
98125.4
93514.4
90091
87734.5
86262.3
85556.6
102530
102995
103927
105304
106969
108622
109385
107773
103447
98343.9
93685.5
90179.1
87777.5
86284.7
85571.2
102530
103002
103949
105343
107031
108586
108625
107482
104232
98575.9
93866.6
90274.9
87813.3
86296.5
85573.9
102531
103012
103985
105426
107124
107804
108517
107478
104315
99825.1
94068.9
90350.5
87829.2
86287.5
85559
102525
103012
103995
105449
106458
107833
108473
107430
104276
99832.4
95278.6
90349.3
87804.7
86255.7
85524.3
102517
103007
103995
105446
106443
107833
108464
107279
104195
99762
95186.2
90282.6
87750.4
86204.1
85472
102504
102989
103970
105414
106413
107784
108385
107267
104097
99648.3
95091.7
90182.6
87660.2
86131.2
85410.5
102488
102965
103930
105356
107033
107702
108328
107218
104000
99523.4
93671.2
90029.4
87562.3
86057.1
85346.5
102471
102939
103878
105254
106910
108421
108418
107192
103922
98124.4
93417.4
89881.4
87472.3
85992.3
85288.1
102457
102917
103840
105198
106832
108443
109133
107433
103003
97873.4
93229.3
89762.7
87401.1
85937.4
85238.6
102445
102901
103811
105150
106776
108386
109286
107392
103057
97711.5
93091.4
89683.2
87348.7
85895.2
85200
102438
102890
103793
105120
106736
108348
109265
107351
102992
97620.4
93017.3
89634.9
87314.3
85866.5
85173.6
102434
102885
103785
105108
106720
108332
109265
107338
102974
97589.5
92987.2
89612.7
87297.5
85852.2
85160.2
101181
101807
103108
105179
108084
111721
115637
113008
105716
96667.4
90406.4
86552.5
84126.8
82696
82038.6
101178
101806
103111
105190
108105
111752
115651
113039
105784
96758.1
90472.4
86590.8
84149.6
82710.8
82049.7
101173
101805
103120
105219
108167
111833
115709
113120
105975
96963.4
90619.4
86667.4
84191.8
82736
82067.1
101167
101806
103141
105300
108355
112061
113430
113306
107679
97680.4
90971.6
86800.9
84245.3
82763.4
82083.7
101157
101802
103165
105368
108464
110560
113460
113355
107957
100060
91305.2
86923.4
84283.1
82770.9
82083.5
101151
101815
103230
105589
107604
110770
113529
113321
108041
100385
93533.9
87046.4
84269.4
82752.2
82058.4
101136
101800
103216
104974
107660
110870
112566
112582
108285
101341
93708.2
88841.7
84167.3
82682.4
82004.4
101130
101801
103277
104976
107692
110876
112544
112477
108185
101252
93657.7
88806.4
84175
82606
81941.2
101117
101780
103197
104947
107653
110823
112453
112358
107984
101049
93451
88659
83963.7
82523.8
81865.3
101110
101770
103177
105521
107525
110671
112435
112258
107808
99854
93097.9
86572.7
83905
82462.2
81800.8
101101
101745
103100
105286
108345
110469
113192
112828
107286
99522.8
90596.4
86362.6
83840.5
82399.2
81744.5
101097
101732
103059
105203
108229
111878
113178
112951
107316
96958.4
90329.5
86258.6
83782.5
82352.9
81699.1
101094
101723
103031
105118
108044
111677
115487
112861
105528
96438.4
90093.2
86177.2
83741.3
82316.6
81664.2
101092
101717
103017
105085
107980
111601
115454
112788
105413
96317.1
90010.7
86137.2
83713.8
82291.8
81640.3
101092
101715
103011
105072
107960
111575
115453
112765
105381
96270.1
89977.4
86118.9
83700.5
82279.4
81628.2
99013.7
99761.4
101377
104145
108557
115506
121164
126605
113045
92007.7
84743.3
81196.5
79129.9
78034.1
77568.6
99004.8
99753.8
101373
104151
108580
115536
121180
126633
113104
92118.7
84818.6
81236.2
79154.7
78051.4
77582
98987.4
99738.1
101363
104149
108610
115605
121211
126703
113235
92301.7
84928.1
81290.6
79195
78078.4
77601.9
98965
99724.9
101370
104220
109012
113467
121376
126950
113532
97066.8
85326.7
81356.8
79245.4
78109.6
77621.2
98931
99686.5
101339
104293
107804
113776
121761
124699
115198
98309
88855.4
81431.6
79212.3
78097.1
77614.1
98907.6
99660.6
101396
103889
107931
112872
120027
123807
115632
100886
89228.2
83904
79117.5
78026.7
77571.2
98874.4
99616.3
101384
103932
108084
112913
119118
123793
116082
101855
90913.4
83906.9
78956
77906.9
77490.9
98856.1
99584.4
101387
103986
107427
112393
119092
123618
115729
101510
90646.3
83741.5
80801.7
77773.5
77406.3
98856.1
99596.1
101359
103942
107403
112835
119009
123400
115302
101040
90301.5
83482.8
78652.9
77706.1
77322.6
98869.6
99621.2
101356
103832
107994
112822
118888
123259
115028
100638
90035.4
83295.6
78626.5
77668.6
77264.1
98879.8
99635.4
101286
104230
107737
113734
119658
124123
114322
99263.9
88007.7
80623.6
78638.2
77647.6
77218.5
98899.2
99656.7
101299
104145
108928
113396
121226
126582
112849
96420.2
84445.6
80658.3
78684.6
77632.3
77183.4
98912.3
99662.7
101286
104069
108522
115500
121078
126446
112795
91634.5
84293.6
80712.8
78678.7
77608.2
77155.3
98923
99671.3
101289
104064
108487
115426
121032
126418
112767
91613.4
84290.1
80724.9
78671
77591.8
77135.7
98928.5
99675.8
101290
104058
108464
115399
121033
126412
112750
91581.1
84273.2
80722.2
78665.7
77582.9
77125.5
95807.1
96527.5
98137
101068
106063
112925
129448
159450
116924
84220.7
74375.2
73185.8
72517.2
72315.8
72267.9
95789.5
96509.5
98118.3
101048
106050
112917
129423
159435
116949
84293.2
74434.9
73215.5
72543.7
72336.6
72284.5
95752.2
96465.2
98063.4
100969
105936
112896
129330
159388
117078
84524.2
74459.3
73246.1
72579.3
72364.6
72307.9
95700.6
96409.4
98002.6
100755
105334
113264
129331
159278
117378
85186.8
78256.3
73151.8
72618.5
72391.5
72335
95623.9
96305.3
97799
100829
105355
112396
126434
159246
119567
90114.6
78563.6
75618.6
72494.7
72370.6
72324.7
95549.5
96157.5
98273.3
100881
105108
112381
125082
154512
125722
93300.9
81309.2
75617.8
74247
72244.3
72269
95500.1
96100.6
98261.1
100871
105131
111973
125028
154587
126272
93703.5
82603.8
77194
74131.2
72156.7
72190.3
95461.4
96062.2
98311.2
100887
105125
111945
124985
154393
124602
92536.4
82075.9
76899.3
73979.6
72056.8
72076.8
95483.1
96084.2
98254.1
100898
105137
111935
124950
154158
123151
91157.6
81358.5
76537.3
73740.5
71938.1
72001
95514.3
96121.6
98252.5
100830
105122
111943
124961
154064
122561
90395.1
80834.4
76239.1
73607.1
71842.9
71925
95575.7
96262.3
97760.9
100789
105324
112393
125047
154111
122340
90044.5
79368.7
74534.4
71797.1
71854.7
71882.6
95640.2
96348.8
97941.6
100707
105185
113173
126440
159118
116665
88159.8
77078.1
72317.4
71982
71863.5
71855.6
95678.5
96395.2
97999.4
100912
105895
112872
129342
159261
116631
83885.7
73764.8
72607.9
72015.4
71857.6
71831.3
95710
96431.6
98044.8
100984
106002
112898
129391
159353
116645
83849.3
73860.6
72664.9
72028.2
71849.7
71813.6
95723.4
96446.2
98060.7
101001
106011
112887
129424
159384
116684
83832.8
73890.8
72690.9
72030.6
71843.1
71803.8
91502.7
91938.8
92910.5
94694.5
97629.3
104355
111759
109307
24224.3
53900
59502.2
62714.7
64732
65998
66576.4
91476.9
91910.1
92876.8
94649.6
97588.9
104306
111713
109184
24041.1
53957.3
59534.6
62756.2
64774
66027.6
66600.1
91421.1
91841
92795
94568.3
97459.9
104178
111574
108988
24087.7
54264.2
59673.7
62886.6
64850.5
66076.7
66639
91340.4
91730.2
92655.8
94263.6
98735.3
103725
111248
108639
25780.1
55202.8
61550.5
63225.8
64978.9
66138.2
66693.6
91226
91580.7
92418.7
95394.3
98460.8
104116
111966
108163
32414.3
60458.2
63927.2
64874.7
65165.1
66206.4
66723.6
91097.4
91430
93544.7
95258.7
98925.8
104347
111743
107752
47274.1
63886.4
65852.6
65157.3
66361.6
66252.9
66707.5
91043.3
91366.1
93505.7
95167.7
99169.5
104282
111673
107764
61692.2
65806
66252
66209.2
66283.8
66238.4
66672.1
91012.2
91323.6
93460.8
95805.2
99160
104265
111693
107943
35821.6
62588.5
65471.1
66483.3
66166.8
66163.6
66578
91027.3
91352.2
93457.8
95795.4
99163.4
104282
111752
108192
26797.1
59361.8
64332
66001.3
65915.4
66010.4
66481.2
91063.8
91399.7
93503.3
95175.7
99171.7
104332
111846
108427
25979.8
58150.7
63534.6
65072.5
65685.4
65844.9
66359.1
91176.7
91534.7
92378.8
95298.6
98955.4
104417
111990
108656
24867.8
57573.9
62974.8
63765.4
64481.6
65682.4
66268.9
91276
91670.8
92608.7
94232.8
98632.5
103485
111143
109029
24487.7
55528.1
60249.6
62343.9
64301.7
65594.7
66202.8
91345.4
91770.1
92735.2
94532.2
97451.9
103992
111524
109173
24039.5
53565.2
58924
62212.2
64273.5
65560.7
66154.8
91392.9
91830.4
92807.1
94597.9
97566.4
104280
111722
109309
23943.9
53520.1
58968
62209.5
64256.9
65536.8
66124.6
91414.3
91854.7
92836.5
94639.2
97601.1
104343
111797
109390
23893.3
53549.2
59049
62233
64249.3
65524.5
66109.6
86374.8
86284
86080.5
85775.4
85752
89812.5
93552.8
106709
5731.66
32776.1
45795.8
52811.5
57411.8
60107.5
61320.2
86346.1
86251.6
86044.5
85733.6
85724
89762.4
93504.7
106512
2455.45
32849.8
45823.3
52888.7
57472
60147.9
61353.7
86287.7
86183.9
85970.1
85694.8
85660.4
89637.1
93373.5
106385
4219.71
33151.3
46084.2
53093.2
57594
60230.6
61417.1
86207.5
86074.3
85856.8
85718.5
88407.5
89544.6
93107.3
106193
5301.78
33905.3
46659.2
53588.9
57816.1
60361.3
61513.4
86105.9
85951.1
85784.7
87694.9
88392.4
91330.5
94106.5
106088
2233.99
34787.1
47937.3
54662.4
58123.6
60531.3
61617.2
85998.7
85912.1
87353.1
87584.3
89596.6
92083.4
93953.1
105647
28524.6
36973.6
49086.7
54933.7
58886.2
60653
61677.2
85959.7
85884.5
87228.5
87538.9
90217.6
91996.3
93887
105610
25657.8
38814.8
49514.9
55402.9
58879.2
60661.8
61678.1
85933.8
85852.4
87173
88509.4
90178.2
91974.4
93897.7
105634
7653.19
36970.3
48969.8
55408.8
58740.8
60592.6
61601.7
85940.4
85866.8
87165
88502.1
90187.1
91998.3
93948.2
105742
3023.2
34551.2
48022
55001.7
58528.4
60434.8
61496.6
85959.5
85876.2
87214.4
87567
90228.9
92061.9
94025.1
105838
5277.89
33620.7
47326.4
54389.4
58328.6
60257.3
61350.9
86048.2
85898.1
85743.2
87578.2
89659.6
92186.1
94138.5
105955
5007.59
33188.9
46861
53673.4
57478.6
60046.3
61188.6
86132.7
86004.8
85800
85686.7
88429.9
89716
93379.6
106370
3362.74
32738.2
45917.8
52825.2
57192.7
59854
61049.7
86199.2
86100.4
85897.7
85643
85640
89613.9
93327.3
106373
2448.79
32667.2
45441.5
52479.7
57059.4
59744
60954
86247.5
86157.8
85961.7
85671.4
85689
89717.3
93492.6
106515
2634.73
32554.7
45376.9
52406.1
56992.7
59682.2
60897.5
86270.9
86184.8
85992.3
85707.6
85709.8
89796.8
93577.4
106600
2494.56
32503.7
45418.3
52375.8
56961.7
59656.7
60871.5
81128.9
80450.1
79042.8
76808.8
76452.8
75335.7
77851.5
2174.19
24863.6
38508.4
46752.3
52486.2
55935.1
57541.9
81101
80418.9
79008.8
76774.6
76411.3
75288.1
77805.2
2205.37
24925.1
38548.5
46835.4
52541
55976.2
57577.6
81050.9
80367.1
78943.7
76712.9
76388
75229.4
77693.7
2221.86
24913.5
38783.8
46984.6
52649.5
56063.1
57646.4
80995
80303.5
78863.8
76817.1
76629
75111.2
77482.1
2227.4
25115.8
37931.7
47369.5
52845.8
56206.6
57752.4
80942.9
80248.2
78943.1
78848.2
77141.5
77143.5
78110.5
2265.47
22794.6
37698.6
47219.2
53115.9
56394.3
57881.1
80895.3
80333.1
80378.2
79072
78453.5
78079.5
78030.5
2246.98
22672.3
37782.1
47380
53062.7
56467.8
57973.3
80874.2
80325.5
80309.8
79133.4
79221.9
78097
78018.7
2260.47
23568.7
38096.2
47277.9
53118.4
56463.5
57978.7
80849.4
80306.1
80280.6
79990.3
79309.6
78117.6
78054.9
4927.62
24223.1
38032.8
47127.7
53022.4
56410.6
57914.3
80849.8
80304.1
80270.9
80000.3
79316.8
78138.5
78098.9
2306.21
23502.8
37610.2
46883.1
52882.9
56285.7
57821.6
80844.2
80285.1
80296.6
79125.9
79235.6
78143.4
78113.2
2312.65
22859.9
37171.3
46689.1
52719.3
56152.8
57691.7
80868.5
80178
78884.8
78790.6
78423
78124.6
78132.3
2333.63
22624.7
36855.9
46637
52638.6
55992.8
57508.6
80899.2
80211.1
78780.2
76757.6
76649.2
75251.5
77277.3
2324.08
23252.2
37514.7
46874.7
52366.2
55780.5
57346.8
80937.1
80256.6
78842
76630
76327.4
75171.5
77618.7
2358.59
24560.5
38354
46515.8
52204.4
55636.4
57229.4
80974.9
80295.8
78893.6
76679
76359.7
75243.2
77765.8
2380.99
24793.9
38235.4
46444.1
52122.3
55555.3
57158.2
80996.1
80320
78920.1
76704.3
76345.7
75285.9
77846.6
2395.69
24912.7
38241.1
46382.4
52082.5
55520.4
57124.5
76686.9
75459.9
72890
68415.6
66083.3
58450.1
54140.5
2342.49
2179.03
23524
36357.7
44844.4
50734.9
54306.6
56018.3
76654.6
75421.7
72840.1
68348.5
66012.5
58363.2
54053.8
2276.05
2200.61
23645.1
36341
44904.6
50760.9
54334.4
56043.2
76598.6
75361.5
72747.6
68201.2
65897.2
58206.3
53928.8
2277.54
2215.61
20425.2
36503.2
44968.9
50820.6
54390.1
56089
76540.5
75302.7
72604
68079.1
65759.4
57986.5
53820.5
2418.97
2235.67
20907.7
34063.5
45100.3
50921.8
54484.6
56161
76500.4
75240.4
72489.8
71017.7
65460.4
60808.1
55634.7
2966.05
2270.78
18165.8
32794.2
43568.6
51038.1
54615.9
56250.7
76467.9
75213.3
74403.3
70830.1
67369.3
62089.7
55668.9
2838.85
2268.56
17535.4
32223.9
43626.7
50058.7
54659.4
56324.8
76435.4
75172.6
74353.3
70677.3
68196.3
62082.5
55734.2
2429.09
2294.82
18024.3
32463.7
42908.9
50113.8
54649.9
56324.8
76403.3
75149.1
74306.9
72044.9
68180.2
62134.1
55896.4
6290.43
4878.65
19071
32626
42549.3
50079.1
54615
56279
76402.2
75141.7
74301.6
72055.1
68183.9
62169.8
56058.4
2086.29
2279.4
19101.6
32519.2
42444.7
49996.8
54530.3
56206.3
76399
75147.4
74344.8
70693.4
68216.9
62132.9
55889.5
2272.94
2310.6
18641.5
32283.3
42664.1
49876.1
54438.7
56108
76400.3
75141.4
72394.6
70906.8
67378
62114.5
55745.3
2493.45
2313.97
18515.5
32106.8
43287
50726.3
54320.4
55951.8
76412.4
75174.3
72478.1
67967.7
65578.9
57938.2
53838.6
3006.9
2299.79
19312.6
33810.8
44791.3
50569.1
54143.4
55820.5
76447.7
75210.4
72598.6
68065.4
65700.5
58069
53873.9
2304.1
2374.51
20472.7
36226.7
44625.8
50459.1
54023.5
55721.6
76488.4
75254.2
72672.3
68190.8
65853.2
58234.6
53983.5
2368.85
2382.38
23744.1
36069.6
44578
50392.7
53955.1
55660.7
76512.1
75282.8
72710.8
68242.2
65914
58343.5
54096.5
3035.74
2399.58
23840.2
36104.9
44532.6
50368.3
53923.7
55630.4
73890.6
72234.8
68729
62549.4
51965.3
42298.4
17646.7
2268.5
2183.79
25525.1
38153.8
46352.7
51968.8
55349.8
56966.2
73844.2
72177.6
68639.6
62418.4
51760.5
42053.9
17530.6
2287.07
2202.6
25411.9
38029.7
46338.9
51954.8
55352.5
56972.9
73762.8
72084.5
68499.7
62230.9
51470
41547.7
17349.8
2281.75
2221.12
20846.6
37892.9
46327.6
51952.6
55361.1
56982.2
73667.2
71991.4
68303.7
61998.7
55865.7
41075.7
17357.7
2280.59
2236.89
20921.1
34088.6
46289.7
51957.6
55382.7
57008.4
73589.2
71902.6
68170.3
64533
55699.9
44800.8
23731.8
2288.44
2255.95
17496.2
32193.3
43595.9
51966
55454.7
57047.5
73530.3
71811.9
69798.5
64408.1
57848.4
46583.8
24535.2
2284.25
2282.18
16971.4
31246.6
43558
50135.5
55485
57096.4
73469
71728.8
69777.5
64274.2
58776.9
46589.2
24667.6
2269.18
2260.85
17368.1
31432.8
42330.5
50153.7
55476.1
57092.1
73425
71689.7
69734.2
65656.9
58698
46698.5
25080.2
2357.66
2287.58
17975.5
31606.9
41753
50146.3
55448.9
57061.3
73423.4
71681.8
69722.2
65650.6
58690.8
46753.4
25596
40403.9
2277.41
17923.9
31577.9
41710.6
50102.2
55387.2
57001.5
73437.2
71715.7
69754.6
64256
58753.6
46626.4
24873.4
2302.77
2278.36
17814.9
31448.6
42242.2
50022.2
55315.6
56926.1
73454.9
71763.1
68017.3
64451.6
57794.4
46579.8
24620.7
2278.19
2287.51
17808.5
31361.4
43413.3
51728.3
55211.5
56805
73497.8
71814.6
68116
61801.5
55678.4
41033.2
19019
2298.83
2287.61
18820.3
33919.3
46011.9
51654.2
55090.4
56714.4
73566.2
71880.5
68283.3
62002.9
51259.6
41268.8
17391
2285.15
2391.91
20903
37611.6
46004.9
51614.7
55024.4
56647.5
73629
71952.7
68397.4
62157
51494.8
41690.1
17443.1
2263.15
2389.05
25325.8
37636.4
45974.7
51583.3
54986.6
56608.9
73664.5
71996.9
68467.5
62256.6
51635.3
41982.8
17592
2269.49
2404.79
25517.3
37717.6
45979.7
51581.8
54969.5
56589.2
73401.9
71668.6
67972.7
61666.3
50555.3
39742.3
4210.6
2282.02
2410.62
32374
43640.7
51014.4
55924.1
58785.2
60147
73336.5
71586.1
67831.6
61403.2
50285.8
38581.1
4520.86
2286.52
2504.34
31837.5
43397.3
50907.6
55858.5
58762
60135
73226.1
71455.2
67629.7
61058.1
50417.8
36900.4
6644.44
2295.22
2218.2
24309.3
43186.3
50840
55790.2
58735.3
60121.4
73094.3
71321.6
67421.9
60789.5
52518.5
35749.5
7890.84
2293.77
2233.4
24334.9
38167.9
50728.6
55729.4
58713.6
60117
72981.9
71213
67317
62181.9
52066.9
38239.1
16840.7
2288.33
2265.08
19980.4
35592.4
47225.8
55725.6
58748.7
60129.4
72897
71123
68115.2
61944.2
53430.1
39258.6
16813.2
2294.48
2268.42
19539.5
34327.8
47146
53253.2
58801.6
60169.5
72810.5
71013.2
68038.2
61777.4
53989.4
39121.8
16872.4
2266.11
2288.75
19973.1
34544.1
45506.5
53256.7
58803.4
60165.6
72755.9
70952.1
67985.8
62709.3
53831.7
39182.8
17967.2
2324.77
2293.54
20515.3
34767.5
44729.5
53260.9
58780.1
60141.6
72748.1
70943.3
67969.1
62680
53787.1
39133.1
18164.5
2440.76
2320.02
20306.5
34702.7
44688.5
53222.4
58723.3
60083.5
72773.6
70987.7
67983
61727.8
53878.6
39006.6
17117.9
2297.45
2302.5
20121.9
34492.8
45421.8
53154.5
58655.5
60014.5
72807.7
71024.4
67090.6
61945
53279.8
39147
16867.6
2303.98
2318.29
20085.5
34378.4
47024.4
55495.4
58514.2
59896.9
72879.7
71088.9
67156
60478.4
52023.5
35898
16365.9
2285.54
2308.2
21426.3
37871.4
50440
55426.2
58421.5
59835.4
72981.8
71192.6
67330.3
60708.1
50023
35913.1
6783.6
2277.33
2431.61
24259.5
42802.4
50462.2
55428.6
58393.7
59789.2
73071.5
71299.1
67499.6
61005
49811.2
38184.2
4482.94
2253.35
2449.88
31023.8
42749.8
50441.5
55437.2
58378.4
59766.7
73124
71364.9
67609.4
61205.2
49963.3
38825
4207.84
2250.73
2987.21
31347
42930.7
50501.4
55466.9
58378.4
59759
75473.7
74139.8
71313
66878.7
57161.1
49206.3
3182.32
3620.24
29258.5
49260.3
53836.2
59058.5
62339
64221.7
65146.7
75391.3
74029
71114.4
66394.5
56548.6
46209.3
2228.93
2291.11
27019.1
47798
53368.2
58818.8
62220.3
64177.2
65121.8
75258.3
73861.7
70855.3
65748
57924.8
43022.4
11336.7
2357.14
4751.53
36225.9
53144.8
58590.5
62077.4
64127.5
65093.9
75101
73669.8
70537.4
65268.9
56890.6
41236.3
12782
2293.07
2231.61
33952.1
46990
58422.4
61959.1
64088
65079.1
74962.7
73508.7
70334.7
64965.9
55739.6
41226.5
18375.9
2282.15
2249.94
26967.2
43704.5
54392.8
62015.4
64123
65091.9
74854.4
73408.4
70087
64399.4
55614.2
40959.9
17806.4
2271.13
2283.34
26673.3
42077.4
54355.2
59150.2
64239.6
65147.4
74745.3
73269.4
69851.7
64074.8
55457.7
40319.9
17343.7
2282.1
2286.03
27912.4
42596.4
52469.5
59151.7
64261.2
65149.2
74680.2
73189.1
69745.8
64259.2
55112.3
39890.9
16520.9
2328.1
2311.81
29544
43208.5
51599.9
59194.4
64242.3
65127.8
74665.4
73175.8
69725.2
64208.4
55009.4
39617.6
15263.5
2177.4
2307.74
28801.8
42983.4
51522.6
59139.5
64174.6
65062.7
74700.9
73232.4
69773.8
63997.1
55203
39826.3
16354.9
2298.38
2322.6
27324.2
42272.2
52311
59030.8
64086.4
64996
74751.8
73270.8
70030.6
64349.5
55342.4
40569.1
17481.9
2305.68
2342.27
26707.9
41941.5
54191.2
61774.6
63885
64854.8
74848
73386.9
70193.1
64821.2
55778.7
40357
17424.6
2345.5
2341.38
28952.3
46453
58100.3
61642.3
63789.6
64787.5
74977.2
73551.1
70478.6
65259.8
57267.8
41506.8
12141.8
2294.58
10480.2
34511.1
52625.3
58148.9
61688.7
63772.3
64752.1
75090.9
73695.6
70705.5
65853.8
55819.8
44941.2
2404.59
2339.98
25217.7
46489.3
52538.1
58242
61745.8
63770.9
64739.8
75159.8
73787
70858.5
66204.8
56207.3
45954.3
2437.44
2350.08
25387.2
47136.3
52833.5
58376.2
61811.4
63785.3
64741.1
79653
79085
77917.8
77482.3
74605
84482.2
114201
107235
87065.9
74473.9
69117.1
70087.8
70549.2
71044.8
71375.1
79562.2
78945.5
77674.9
76692.1
73410.6
79973.3
99925.2
84139.4
78495.4
71871.6
68262.2
69655.5
70385.3
70986.4
71343.8
79420.1
78744.2
77376.6
75283.7
73122.5
64418.5
54375.9
24372.3
43081.8
58576.3
67341.7
69001.9
70168.1
70923.1
71310.5
79251.8
78511.9
76940.1
74589.8
67999.7
58931.4
37475.6
7025.67
21596.9
54232
61379.8
68688.1
70001.5
70882.7
71296.6
79101.8
78308.3
76653.1
72217.2
66503.1
54960.2
30567.5
2220.75
8977.47
43539.3
57442.6
64847.8
70061.3
70920.7
71319.2
78989.3
78201.7
75147.1
71474.2
64597.5
52259
27249.3
2270.83
11346.1
42454.9
55448.9
64865.4
67301.1
71019.9
71393.5
78870.6
78055.2
74807.5
71082.9
63525.6
50679.3
25718.4
2281.59
24765.2
46421.8
56324.7
62834.7
67345
71043.6
71397
78799.9
77968.7
74675.5
70332.7
62993
49939.4
25774.7
7776.31
62612.7
56317.1
57660.5
61897.9
67423.3
71027
71377.2
78777.6
77944
74642.9
70268.4
62858.3
49612.7
24253.8
2251.9
46193.9
52893
57168.2
61794.2
67363
70947.8
71301.9
78814.8
77996.7
74712.4
70962.5
63165.3
49985
23755.5
2313.2
9457.62
43655.1
55736.9
62645.4
67196
70846.6
71225.5
78867.5
78034.9
76285.2
71311.3
64232.4
51528.5
25777.1
2339.01
9549.86
42210.3
55294.9
64690.3
69810.4
70678.4
71077.5
78979.7
78201.5
76541.7
74023.5
66384.1
56234.5
30052.9
2540.5
9052.38
46657
60657.5
68375.6
69689
70581.8
71000.4
79127.8
78418.2
76968.4
74719.6
72311.7
59432.9
40450.8
18376.2
34228.2
55323.1
66803.4
68555.7
69783.3
70567.9
70966.4
79257.5
78605.8
77244.7
76025
72390.3
76205.5
94765.5
56900.5
71818.3
69297.6
67215.5
69017.5
69903.7
70578.5
70959.1
79337.3
78727.5
77447
76627.3
73462.2
79026.6
106422
71278.9
75634.7
70766.8
67722.1
69264.9
70001.2
70602.8
70965.5
84851.8
85090.2
85398.4
88137.8
90492.1
96781.9
116161
104235
107005
90541.2
83512.9
80990.7
78978.5
78256.5
78002.7
84784.1
84972
85283.6
87692
90268.9
97399.4
125762
116811
105895
90119.1
82927.2
80641.8
78864.9
78211.3
77981.8
84674.1
84774.1
85149.6
86273.6
89661.4
91903.4
115860
142967
110690
87020.2
81982.3
79912.8
78699.3
78161.5
77963.3
84537.1
84576.6
84755.9
85574
83943
88614.2
105972
138921
103087
84201
78942.7
79494.8
78572.7
78145.1
77966.5
84410
84389.5
84424
82330.7
82369.3
80481.1
78576.2
68158.6
74317.4
75021.4
75955.7
76959.8
78556.4
78176.8
77995.5
84322.7
84220.1
82323.1
81661.7
79151.9
75386
66193.9
3127.69
49607.7
71128.9
73900.8
76869.7
76559.7
78185.1
78053.9
84218
84084.2
82056.7
81271.4
77205.6
72713.9
55395.4
2280.66
36526.8
69294.6
73616.1
75265.1
76609.3
78171.3
78047.7
84153.1
84007.6
81934.1
79738.1
76677.6
71254
53438.4
2235.93
2506.76
67682.2
73467.7
74399.2
76587.7
78145.2
78022.2
84121.1
83967.8
81886.5
79662.2
76534.2
71126.2
54022.7
2283.8
2100.88
65213.7
73307.4
74346.5
76529.6
78062.7
77943.4
84144.5
84010.1
81926.2
81076
76794.6
72214.8
56094.6
2316.25
48032.5
70467
73711.1
75198
76459.5
77992.7
77867.6
84175.8
84115.4
84056.3
81439.9
78644.6
74518.1
64545.5
7220.18
57653.2
72949.3
74247.8
76739.3
78290.3
77919.2
77740.5
84275.4
84282.8
84385.8
85088.8
82420.8
84692.4
83648.2
71381.2
79094.4
79127.6
78558.6
79246.9
78277.9
77844.3
77665.4
84406.9
84490
84825.9
85873.7
89277
89864.5
113014
144695
110796
86283.6
81876.4
79635.5
78376.5
77826.4
77626.4
84519.3
84701.4
85016.6
87394.8
90733.2
97588.2
133198
141426
111050
90431.9
82725.9
80262.4
78483.4
77839.1
77613.6
84585.9
84820.9
85162.2
87824.2
91432.3
97113.5
129377
133136
111468
90953
83066.5
80475.7
78554.3
77855.8
77614.1
89764.4
90438.2
91238.9
94189.9
97149.1
97541.8
104499
109157
106091
95289.9
91915.6
88635.1
85916.8
84704.5
84106.5
89772.1
90429.6
91396.9
94492
98292.8
99546.7
110332
108814
106378
96601
92094.2
88710.5
85976.9
84723.8
84126.8
89770.8
90354.8
91674.5
94231.1
98790.6
101441
108942
120178
108687
99129.6
92378.2
88623.6
86073.6
84759.7
84168.2
89737.1
90310.2
91617.7
94441.7
95918.7
104109
118208
138748
117971
100966
92451.9
88666.5
86167.2
84826.9
84229.8
89675.8
90203.5
91429.3
91940.7
95875.9
102206
118922
158932
127222
102382
92156.8
87791.6
86204.5
84883.2
84286.8
89615.3
90000.6
89832
91541.9
93778.6
100243
120616
185487
133314
103070
91994.6
87895.5
85293.4
84831.3
84333.1
89548.2
89898.6
89748.5
91303.8
92550.4
99673.3
120222
211582
135222
101751
91882.3
87359.2
85349.1
84809.6
84327.7
89502.6
89842.1
89649.3
90125.7
92165.7
98680.1
115118
174892
75769
95596.5
91249
87017.1
85255
84767
84297.5
89457.8
89793.1
89584
90014.2
91958.6
98278.2
114595
182150
108016
97486.8
91383.7
86951.1
85170.8
84675.1
84204.9
89451.9
89814.5
89551.2
90979.5
91996.3
98590.9
117585
195463
142919
103969
92122.1
87152.8
85102.6
84596.1
84115.3
89463.1
89960.2
91103.6
91362.8
93160.3
99134.2
118967
182416
134944
104222
92173.8
87581.6
85880.1
84585.8
84002
89509.5
90069.9
91346
94129.5
95559.7
104280
119100
155474
129640
103216
92580.7
88448.6
85862.8
84509.6
83911.6
89552.9
90148.6
91506.1
94116.5
99207.6
103716
115341
133310
114261
101749
92683.6
88519.7
85815.1
84442.3
83834.4
89573.6
90264.3
91369
94564.6
99683.2
101766
114291
121708
109798
98893.1
92867.2
88713.6
85751.4
84404.1
83781.1
89578.9
90295.4
91304
94317.6
99263.8
99895.2
109884
117676
109157
98120
92598.8
88642.6
85701.6
84374.8
83752.1
93603.2
94308.8
94977.3
96855.5
99558
99877.5
103133
112901
103739
97648.8
96174.1
93080
90871
89740.8
89075.4
93696.4
94416.9
95282.5
97396
100625
100717
105316
107937
104671
98900.2