/*--------------------------------*- C++ -*----------------------------------*\
| =========                 |                                                 |
| \\      /  F ield         | OpenFOAM: The Open Source CFD Toolbox           |
|  \\    /   O peration     | Version:  v2012                                 |
|   \\  /    A nd           | Website:  www.openfoam.com                      |
|    \\/     M anipulation  |                                                 |
\*---------------------------------------------------------------------------*/
FoamFile
{
    version     2.0;
    format      ascii;
    class       volScalarField;
    location    "0.02";
    object      p;
}
// * * * * * * * * * * * * * * * * * * * * * * * * * * * * * * * * * * * * * //

dimensions      [1 -1 -2 0 0 0 0];


internalField   nonuniform List<scalar> 
449343
(
105596
105737
105974
106214
106330
106121
105376
104025
102119
99866
97555.7
95462.5
93777.5
92610.4
92016
105585
105727
105966
106206
106324
106117
105374
104026
102123
99873.2
97564.5
95470.6
93783.8
92614.8
92019.3
105583
105726
105967
106211
106330
106125
105385
104043
102148
99904.4
97599.4
95504.4
93813.8
92641.2
92043.6
105588
105733
105977
106224
106346
106143
105409
104073
102188
99954.4
97655.5
95559.4
93863.4
92685.4
92084.6
105598
105745
105993
106245
106369
106169
105440
104113
102240
100018
97726.2
95628.7
93926
92741.2
92136.6
105610
105760
106011
106267
106395
106198
105476
104158
102298
100087
97802.1
95702.9
93992.7
92800.8
92192.1
105622
105773
106028
106288
106418
106228
105512
104201
102352
100153
97869.9
95770.5
94053.7
92855.5
92243.5
105629
105782
106039
106303
106436
106253
105541
104238
102394
100202
97921
95819.9
94099.2
92897.6
92283.7
105631
105784
106044
106310
106447
106269
105565
104265
102424
100228
97945.9
95844.1
94123.6
92922.1
92308.1
105627
105780
106040
106307
106448
106275
105575
104277
102432
100230
97945.5
95842.4
94125.5
92927.4
92315
105618
105770
106029
106297
106439
106272
105573
104273
102422
100212
97922.2
95819.4
94108.2
92915.4
92306
105604
105755
106012
106280
106423
106259
105561
104257
102398
100179
97883.6
95782.2
94077
92890.2
92284.3
105587
105737
105993
106258
106401
106239
105537
104230
102364
100138
97838
95739
94039.9
92858.7
92255.9
105568
105718
105971
106235
106377
106214
105510
104199
102327
100096
97794.1
95697.9
94003.6
92826.9
92226.6
105549
105698
105950
106213
106354
106190
105485
104171
102296
100062
97760.2
95665.6
93974.1
92799.8
92200.8
105431
105619
105956
106347
106643
106656
106044
104630
102471
99879.6
97272.5
94982.9
93190.2
91971.4
91357.1
105421
105610
105948
106341
106639
106653
106043
104633
102479
99891.6
97285.9
94994.3
93198.4
91977.1
91361.4
105419
105610
105951
106347
106649
106664
106056
104653
102509
99932.8
97331
95035.2
93232.7
92006.1
91387.6
105424
105617
105963
106365
106668
106682
106077
104681
102555
99996
97402.8
95101.4
93288.6
92054
91431.4
105435
105631
105982
106390
106698
106706
106111
104727
102606
100076
97495
95185.8
93359.5
92114.6
91486.8
105447
105647
106004
106419
106730
106742
106147
104778
102679
100164
97594.6
95277.7
93435.9
92179.5
91546.2
105459
105662
106024
106444
106756
106780
106189
104827
102747
100249
97693.3
95363.1
93505.6
92239.5
91601.2
105467
105671
106036
106461
106777
106807
106220
104822
102791
100305
97756.4
95421.1
93556
92285.3
91644.2
105469
105674
106040
106467
106787
106826
106249
104902
102832
100336
97780
95445.6
93582.3
92311.2
91670.1
105465
105668
106033
106461
106788
106826
106258
104916
102839
100329
97758.5
95434.9
93581.7
92315.7
91677.2
105455
105657
106019
106444
106773
106820
106258
104911
102820
100303
97719.9
95399
93558.7
92301.8
91667
105441
105641
105999
106423
106752
106812
106247
104893
102801
100257
97662.4
95349.4
93521.2
92273.3
91643.5
105424
105622
105977
106397
106725
106788
106223
104865
102757
100199
97599.2
95293.9
93477.4
92238.4
91612.7
105405
105602
105955
106372
106697
106759
106192
104826
102708
100142
97541.4
95243.4
93435.8
92203.4
91581.1
105386
105582
105933
106349
106672
106734
106164
104793
102671
100101
97500.5
95206.3
93403.4
92174.5
91554
105012
105308
105870
106621
107383
107957
107751
106175
103339
99859.7
96524.6
93790.6
91765.3
90437.7
89782.5
105002
105299
105863
106617
107382
107958
107752
106182
103356
99883.4
96548.5
93809.1
91777.9
90446.3
89789.1
105000
105299
105869
106630
107401
107978
107766
106215
103401
99952
96619.3
93866
91821.2
90481
89819.8
105005
105308
105886
106657
107435
108002
107776
106252
103447
100051
96734.5
93959
91891.2
90537.4
89869.9
105016
105325
105912
106696
107479
108021
107768
106255
103487
100192
96880.9
94077.8
91980.7
90608.5
89933
105030
105344
105944
106738
107534
108054
107797
106322
103597
100339
97056.4
94211
92077.5
90685.2
90000.5
105043
105362
105969
106781
107564
108111
107851
106394
103699
100456
97275.3
94338.7
92170
90756.9
90063.5
105051
105373
105984
106804
107595
108160
107921
106394
103765
100531
97360.1
94413.9
92232.4
90811.2
90113.1
105054
105375
105986
106806
107599
108168
107929
106498
103821
100572
97389.4
94442.9
92263.1
90841.1
90143
105049
105368
105977
106787
107600
108157
107941
106512
103826
100558
97276.7
94413.1
92255.8
90845.5
90151.3
105039
105353
105953
106757
107564
108158
107954
106501
103789
100504
97182.1
94350.7
92222.9
90827.4
90139.7
105025
105335
105927
106723
107533
108158
107992
106541
103793
100406
97077
94270.8
92170.8
90792.5
90111.9
105008
105315
105900
106688
107489
108124
107973
106486
103728
100302
96962.4
94184.6
92111.8
90749.2
90075.7
104990
105294
105875
106656
107450
108084
107933
106426
103650
100203
96868.9
94112.1
92058
90707
90038.9
104971
105274
105853
106630
107421
108053
107899
106382
103595
100142
96811.1
94063.9
92019
90674
90008.8
104210
104662
105564
106894
108519
110136
111100
109210
104885
99538.1
94972
91627.4
89332.9
87900.5
87214.8
104199
104652
105558
106893
108523
110143
111099
109226
104912
99579.3
95010.7
91654.3
89350.5
87912.6
87224.3
104195
104652
105566
106915
108559
110182
111119
109288
105002
99711.1
95122.1
91730.9
89404.4
87954.5
87260.7
104199
104661
105588
106959
108618
110248
111005
109376
105036
99944.1
95323.2
91858.3
89490.7
88021.1
87318.9
104208
104679
105625
107020
108706
110256
110297
109159
105889
100265
95584.9
92032.6
89601.6
88104.4
87391.1
104221
104702
105675
107121
108828
109519
110239
109220
106085
101623
95920.4
92230.3
89725.4
88192.9
87468
104234
104724
105714
107187
108210
109602
110281
109295
106204
101810
97296.2
92404.3
89841.7
88278.3
87540.5
104242
104737
105735
107219
108236
109670
110374
109290
106309
101941
97393.8
92501
89927.7
88347.1
87598
104246
104738
105733
107216
108247
109681
110388
109426
106384
102011
97474.1
92544.2
89961
88382.2
87635.7
104244
104729
105713
107179
108910
109640
110398
109468
106404
102018
96272.4
92515.2
89959.1
88391.2
87648.7
104235
104712
105669
107087
108817
110420
110505
109487
106380
100744
96031.6
92408
89913.5
88372.4
87637.3
104224
104694
105638
107039
108741
110435
111295
109797
105583
100498
95820.9
92278.9
89845.5
88330.5
87605.2
104209
104674
105605
106983
108670
110345
111386
109667
105471
100213
95596.5
92147.5
89766.2
88276.1
87561.3
104193
104654
105577
106942
108613
110280
111322
109552
105315
100019
95438.6
92042
89695.2
88223.6
87517.1
104175
104635
105554
106914
108577
110239
111284
109485
105229
99921.2
95351.8
91977.1
89646.7
88184.7
87482.6
102828
103450
104742
106801
109692
113312
117200
114559
107216
98140.1
91901.2
88084.3
85694.2
84291
83648.3
102814
103437
104733
106800
109700
113327
117197
114572
107265
98211.4
91954.9
88116.3
85714.8
84305.9
83660.5
102806
103433
104739
106825
109760
113404
117245
114641
107445
98409.2
92102.3
88203
85774.8
84353.3
83701.8
102802
103436
104760
106904
109941
113628
114982
114819
109150
99074
92455.2
88365.2
85869.6
84426.7
83766.1
102804
103446
104801
106994
110081
112166
115031
114888
109470
101564
92865.2
88567.8
85991.9
84515.6
83844.3
102810
103469
104874
107229
109263
112408
115148
114917
109641
102063
95272.7
88855.3
86113
84613.5
83926.6
102815
103478
104894
106664
109350
112568
114293
114356
110124
103255
95706.7
90856.8
86202.3
84690.4
84002.2
102825
103495
104967
106672
109419
112653
114399
114474
110349
103520
95987.6
91054.6
86403.1
84764.7
84071.8
102829
103493
104911
106672
109425
112674
114428
114577
110448
103652
96082.3
91132.5
86358
84817.7
84114.3
102836
103501
104917
107292
109341
112577
114481
114608
110465
102735
95888.8
89254.7
86419.1
84857.8
84140.8
102835
103482
104847
107065
110202
112402
115339
115318
110156
102541
93556.3
89098.4
86395.2
84841.1
84134.5
102834
103476
104816
106988
110071
113833
115306
115391
110087
100021
93209.2
88940.8
86321.5
84799.8
84101.1
102828
103462
104783
106896
109875
113596
117534
115191
108124
99173.9
92766.5
88746.8
86222.6
84734.5
84049.6
102817
103448
104759
106853
109794
113478
117445
115000
107811
98832.7
92525.8
88607.6
86133.5
84670.7
83997.2
102802
103431
104739
106824
109753
113425
117402
114889
107666
98659
92397.9
88523.5
86074.4
84625.1
83957.7
100622
101363
102966
105719
110113
117049
122704
128085
114420
93307.9
86099.5
82610.9
80598.4
79543
79098.4
100602
101344
102950
105709
110119
117058
122700
128093
114453
93387.7
86153.8
82639
80618.6
79559.5
79112.6
100583
101327
102938
105705
110147
117121
122716
128139
114548
93527.7
86245.7
82692.5
80673.3
79608.2
79157.2
100564
101314
102942
105772
110526
114988
122857
128341
114791
98301.9
86607.2
82765.5
80755.3
79683.5
79224.8
100545
101293
102930
105850
109346
115289
123209
126071
116432
99453.2
90184.6
82901.8
80809.1
79757.3
79302.9
100536
101280
102997
105483
109491
114426
121510
125187
116836
102152
90720.5
85549.6
80882.7
79823.2
79381.2
100522
101253
102999
105541
109666
114496
120682
125332
117623
103509
92754.4
85848.2
80929.9
79874.3
79449.9
100521
101241
103046
105627
109062
114055
120794
125532
118016
103965
93079.4
86094
83026.2
79921.3
79519.1
100537
101270
103024
105606
109072
114556
120856
125682
118293
104266
93289.9
86182.3
81159.4
80026.5
79576.7
100565
101312
103034
105511
109675
114584
120826
125713
118308
104309
93366
86231.2
81262.6
80104.5
79621.6
100581
101333
102975
105918
109438
115538
121648
126705
117852
103169
91486.1
83637.6
81314.9
80140.7
79629.6
100604
101361
103002
105845
110632
115195
123262
129192
116389
100130
87712.5
83534.2
81314
80115.7
79598.9
100614
101363
102985
105771
110240
117267
123036
128824
115866
94752.9
87151.2
83384.3
81206.2
80039.6
79540
100616
101364
102982
105761
110199
117183
122921
128568
115308
94274.8
86888
83238.1
81103.9
79965.9
79479.3
100607
101354
102969
105740
110162
117141
122884
128432
115012
94003.8
86719
83135.2
81034.2
79913
79434.2
97371.9
98083.4
99676.3
102586
107560
114431
130961
160971
118102
85355.1
75569.6
74471.2
73881.8
73736.4
73716.8
97345.2
98055.3
99646.1
102554
107533
114411
130923
160944
118104
85394
75599.4
74483.9
73900.9
73755
73733.9
97309.7
98013.2
99592.8
102467
107411
114376
130817
160887
118183
85556.4
75584.5
74501.3
73946.1
73802.6
73782.4
97266.5
97962.6
99526.5
102261
106827
114729
130796
160748
118286
86042.6
79291.6
74370.3
74003.4
73870.9
73853.7
97207.3
97875.3
99347.6
102363
106844
113851
127850
160603
120110
90744.7
79489.4
76870.8
73948.8
73931.2
73930.1
97153.5
97749.7
99851.1
102418
106609
113812
126423
155587
125700
93555.5
82264.2
77028.5
75864.6
73958.6
74004.3
97122.7
97707.5
99852.2
102421
106640
113412
126324
155532
126150
94251.9
84005.8
78917.5
75954.6
74057.7
74083.1
97105.1
97689.3
99919.5
102454
106651
113401
126326
155767
127799
95468.6
84603
79229.2
76155.6
74147.3
74131.3
97140.2
97724.6
99886
102481
106682
113418
126364
155975
128948
96365.6
85037.6
79460
76240.5
74206.8
74211.5
97187.7
97782.9
99896.6
102421
106682
113449
126400
155857
127849
95941.1
85020.3
79513.9
76332.4
74242.7
74245.9
97251.7
97921.9
99391.3
102408
106886
113902
126496
155884
127980
95682.3
83736.5
77856.6
74530.5
74342.1
74265.3
97317.4
98016.3
99588.6
102315
106775
114685
127963
160959
123448
93613
81084.6
75323.2
74636.3
74327.7
74235.9
97354.8
98061.2
99644.7
102532
107474
114438
130844
161093
121364
88050.3
76707.9
75306.5
74526.7
74250.3
74167.8
97375.2
98089.2
99686.8
102602
107588
114479
130953
161131
119373
86768.7
76460.2
75150.2
74415
74168.5
74097.6
97374.4
98089.5
99688.8
102607
107591
114470
131012
161132
118738
86207.6
76265.9
75039.5
74335.5
74107.8
74046.1
93021.1
93444
94391.3
96144.2
99049.9
105798
113222
110811
25257.2
54767.6
60527.4
63877.7
66002.5
67341.1
67955.6
92989.7
93409.5
94351.4
96093.7
99000
105733
113163
110680
24631.2
54779.5
60525.3
63900.2
66036.4
67368.4
67979.9
92941.5
93347
94274.1
96010.6
98873.2
105596
113019
110498
24759.9
54993.9
60613.4
64014.8
66120.3
67436.2
68043.5
92879
93254
94147.3
95716.1
100171
105129
112682
110180
25439.1
55679.1
62334.6
64297.5
66268.3
67538.6
68140.2
92790.8
93126.7
93930.2
96870.8
99889.9
105509
113360
109633
32116
60490.9
64477.9
65911
66519.2
67687
68252.5
92690.7
93009.1
95085.7
96751.9
100371
105719
113013
108903
46162.1
62540.8
66129.2
66301.4
67827.1
67877.9
68363.1
92663
92970.4
95065.5
96669.8
100623
105613
112799
108426
37335.1
63033.9
66859
67670
67974.9
68040.3
68477.1
92654.9
92949.8
95038
97339.5
100610
105562
112691
108066
46837.2
65431.9
67778.3
68620.4
68196.9
68149.8
68537.6
92684.5
92990.1
95051.8
97338.4
100616
105561
112673
108023
67770.3
68416.5
68483.3
68893.3
68259.7
68170.4
68584.1
92734.1
93049
95106.3
96711.7
100634
105605
112720
108100
44707.4
66225.7
68249.3
68275.4
68275.2
68124.7
68565.6
92848.4
93187.3
93989.5
96838.2
100418
105701
112848
108129
47276.5
65167.2
67756
66960.4
67037.9
68040.5
68540.4
92947.8
93322.7
94215.2
95770.8
100088
104741
112053
108660
54511.3
62962.3
64362.9
65265.5
66862.2
67948.7
68473
93009.1
93416.4
94344
96074.3
98913.8
105323
112600
109441
43857.7
58298
61842.9
64822.6
66667.2
67836
68376
93045.1
93467.1
94411.1
96151.2
99050.4
105682
112980
110184
26389.5
56308.5
61394.6
64535.8
66506.4
67729.6
68287.8
93050.8
93476.5
94427.4
96182
99082.6
105786
113156
110566
25042.4
55591
61204.3
64406.2
66407.8
67658.5
68228
87844.5
87734
87492.9
87137.2
87063.7
91123.3
94865
108040
2892.19
33394
46700.4
53878.2
58617.1
61399.8
62655.3
87815.9
87702.3
87458.7
87097.1
87034.3
91064.1
94805.2
107824
4088.02
33484.1
46704.9
53946.4
58674.3
61441.3
62690.8
87775
87651.9
87401.6
87072.6
86978.1
90939.8
94672
107700
4249.15
33690.6
46910.2
54142.5
58812.2
61547.3
62779.4
87727.2
87573.5
87306.7
87111.6
89774.1
90858.8
94406.3
107512
3445.03
34209.8
47355.8
54616.8
59054.1
61719.3
62919.1
87671.4
87491.8
87294.5
89142.5
89777.1
92656
95392.5
107402
6398.61
34740.1
48387.6
55607.8
59403.6
61959.3
63093.5
87606.7
87514
88871.7
89060.2
90997.5
93402.6
95192.1
106922
2325.45
35339.3
49212.4
55930.7
60250.3
62194.2
63263.8
87610
87521.9
88786.2
89040.9
91622.1
93289.6
95045
106735
4661.85
35767.3
49762
56617.7
60443.1
62351.8
63387.8
87613.5
87517.8
88757.6
90021
91584.6
93235.9
94965.8
106572
2440.26
36852
50465.3
57184.1
60593.7
62449.7
63442.2
87638.7
87549.2
88771.1
90020.6
91588.9
93232.6
94948.3
106596
2398.93
38734.2
51038.9
57388.9
60654.2
62443.2
63452.6
87665
87561.2
88830.9
89109.6
91624.4
93281.4
94990.9
106672
2335.84
38031.5
50832.1
57092
60631.3
62361.9
63386.7
87750.4
87579.6
87371.5
89114.6
91058.1
93400.4
95102.1
106780
2273.88
36390.8
50241.7
56375.3
59756.1
62180
63271.5
87826.3
87675.3
87418.3
87203.9
89861.3
90978.9
94399.9
107252
2296.29
35514.6
48812.6
55251.1
59471.9
61993
63131.3
87878.1
87757.5
87509.7
87181
87071.7
90915
94443.9
107392
2354.9
34853.4
47668.3
54708.4
59192.3
61811.5
62989.2
87910.7
87800.6
87560.9
87200.7
87135.9
91061
94709
107675
2413.92
34359.7
47256.3
54389.5
58997.5
61674.7
62878.9
87916
87810.1
87576.3
87225.9
87152.9
91164.7
94860
107856
2443.61
33977.5
47156.5
54253.5
58891.5
61596.9
62811.5
82548.7
81841.5
80378
78062.4
77677.2
76469.4
78956.8
2297.27
25334.7
39346.9
47784.6
53673.5
57214.3
58869.5
82528.4
81818.5
80352.8
78038.2
77638.3
76421.6
78907.8
2299.39
25415.6
39404.4
47881.9
53740.7
57266.3
58911.8
82510.6
81800.5
80324.9
78009.6
77639.4
76381.3
78808.6
2296.16
25358
39638
48069.9
53888.4
57388.4
59010.5
82506.7
81791.2
80283.3
78155.9
77912.2
76296.8
78617
2299.85
25642.8
38738.9
48497
54130.2
57583.3
59163.2
82523.7
81807.5
80460.7
80312.5
78478.5
78396.5
79281.5
2299.53
23451.5
38433.6
48307.8
54446.1
57829.5
59348.3
82549.8
81969.6
81961
80575.5
79845.4
79362.1
79214.9
2277.61
23123.2
38392.3
48526.9
54446.2
57990.1
59524
82585.4
82013.7
81961.8
80686.1
80649.7
79392.3
79191.2
2281.41
23378.2
38766.5
48516.3
54628.2
58075.7
59610.1
82602.1
82034.6
81972
81567.2
80758.8
79401.8
79181.6
2237.93
23894.1
39186.9
48656.7
54694.4
58121.3
59630.5
82625.7
82055.1
81985.1
81594.4
80769.7
79404
79175.4
2297.98
24892.4
39451.8
48745.8
54700.8
58078.7
59607.9
82624.5
82040.6
82006.4
80747
80684
79403.9
79181
2278.4
24568.3
39248.4
48682.9
54648.2
57997.1
59523.3
82638.9
81927.8
80571.1
80422.5
79878.1
79388.8
79216.7
2299.02
23413.1
38772.8
48585.3
54505.3
57853.2
59360.6
82650.1
81939.3
80458.9
78320.4
78115.4
76558.6
78384.3
2241.67
23894.5
39246.4
48670.5
54242.4
57636
59190.2
82664.7
81961.9
80497.5
78198.5
77813.2
76478.6
78776.7
2301.5
25654.8
39847.1
48245.3
53997.8
57441.1
59035.5
82679.2
81978.6
80528.1
78226
77852.6
76576.9
78983.6
2294.93
25693
39610.9
48053.8
53845.3
57310.8
58924.5
82678.6
81981.7
80536.4
78241.2
77831.9
76636.7
79111.1
2296.83
25652
39573.5
47949.3
53764.3
57240.9
58859.9
78057.8
76790.8
74138.5
69536.2
67140.1
59328.3
54901.6
2287.45
2297.05
24587.4
37044.2
45922.5
51923.5
55606
57377.2
78042.6
76771.2
74108.4
69493.1
67084.4
59261.6
54854.8
2304.35
2296.27
24371.2
37217.2
46004.5
52010.8
55668.8
57416.7
78038.4
76766.6
74078.3
69398.5
67019.2
59147.1
54760.9
2291.71
2298.82
20982.6
37509.5
46191.8
52140.6
55779.7
57497.8
78060.7
76797
74026.5
69396.1
66974.6
58994.2
54689.1
2937.56
2301.6
21583.5
35078.3
46453.9
52347.9
55942
57625.3
78124.9
76848.5
74047.9
72474
66770.9
61955.9
56588.1
3070.38
2295.99
19231.7
33956.3
44950.5
52552.2
56147.9
57768.8
78200
76934.6
76093.5
72417.4
68830.6
63348.3
56692.5
2796.65
2294.78
19094.7
33472.4
45078.9
51575.8
56239.8
57896.6
78250.1
76980.9
76121.7
72350.7
69745.4
63405.5
56810.5
4124.29
2287.2
19413.1
33774.1
44362.3
51675.9
56253.1
57922.6
78277
77017.1
76137.1
73788.3
69766.5
63454
56882.5
4521.19
2289.67
20537.7
34125.9
44077.3
51678.5
56231.5
57896.8
78305.3
77038.6
76163
73825.3
69785.9
63463.5
56874.5
4260.14
2297.24
20447.1
34070.2
44030.4
51618.6
56150.5
57834
78303.3
77043.1
76208.9
72454.8
69829.2
63446.9
56803.3
2475.99
2297.37
19604
33667.5
44215.4
51505.1
56058
57738.5
78281
77012.3
74234.8
72663.5
68975.2
63444.8
56755.5
2319.12
2287.89
18850
33306
44796.2
52300.4
55933
57579.7
78258.6
77005.3
74272.4
69665.4
67142.8
59181
54844.4
2295.23
2305.65
19842.1
35076.8
46237.9
52145.1
55742.3
57433.8
78256.1
77001.7
74344
69712.6
67240.6
59335.3
54912
2285.14
2297.75
21282.5
37426.2
46056.5
51995.3
55591.4
57309.5
78262.8
77011
74385.7
69809.7
67383.9
59525.1
55105.9
2612.77
2296.85
24256.2
37247.5
45963.5
51907.4
55501.4
57224.1
78259.9
77013.5
74400.6
69847.5
67441.6
59667.8
55315.6
2479.84
2297.04
24415.4
37279
45903
51864.7
55450.1
57176
75216.9
73509.1
69891
63531.8
52703.5
42788
17948.2
2298.22
2316.28
26027.8
38724.8
47479.6
53237.6
56715.7
58371.4
75198.4
73483
69838
63445.9
52556.6
42615.7
17907.8
2270.91
2303.19
26183.8
38951.5
47590.5
53305.6
56762
58403.9
75191.1
73470.9
69794.2
63361.9
52352.3
42209.1
17776.2
2260.75
2303.5
21669.1
39129.4
47758.3
53427.3
56851.5
58473.8
75210.8
73509.2
69744.3
63308.8
56988.3
41870.7
17750.8
2279.44
2299.78
21871.4
35470.7
47957.5
53577.6
56966.5
58565.8
75281.5
73599.2
69844.5
66111.4
57088.1
45880.6
24301.3
2283.02
2289.27
18832.9
33862.4
45377.8
53723.2
57109.7
58656.1
75377.3
73686.5
71627.5
66209
59491.5
47939.5
25250.6
2341.78
2311.88
18906.5
33076.3
45417.2
51871.3
57152.3
58718.4
75435.9
73743.8
71747.2
66263.7
60600.8
48134.5
25522.3
2277.46
2298.64
19326.4
33235.8
44068.8
51844
57101.4
58684.2
75473.1
73792.7
71805.3
67701.2
60624.8
48223.7
25579.1
2329.02
2282.87
21798.8
33394.7
43353.8
51734.1
57007.4
58609
75506.3
73819.8
71835.1
67738.8
60648.6
48239.3
25657.2
2852.42
2297.93
19016.8
32929.6
43144
51599.4
56882.9
58501.7
75511.2
73834.8
71856
66379
60699.7
48199.1
25477.5
2293.05
2292.32
18208.5
32449.8
43541.7
51460.1
56767.2
58391.1
75484.6
73815
70113.8
66483
59682.9
48115.8
25358.9
2279.28
2274.19
18096.3
32289.4
44691.9
53127.2
56643
58249.8
75468.5
73792.7
70097.7
63744.3
57437.2
42360.8
19705.1
2273.55
2280.33
19448.2
35020.4
47349.2
53059.5
56510.1
58142.6
75477.5
73791.2
70176.1
63835.4
52890.5
42508.1
18019.3
2256.57
2302.72
21381.2
38814.4
47348.8
53012.3
56436.4
58065.1
75492.6
73812.6
70237.9
63936.3
53119.6
42916.3
18109.6
2249.34
2302.07
26077.4
38932.7
47338.4
52985.9
56392
58015
75495.2
73824.1
70277.3
64017.1
53275.5
43253.2
18324.6
2265.79
2302.63
26487.9
39047.4
47360.1
52983.3
56364.9
57983.2
74691.4
72896.5
69063.4
62494.3
51202.4
39355.8
5317.16
2301.11
2307.14
31077.5
44078.5
52185.8
57229.8
60184.3
61573.4
74663
72856.1
68974.3
62305.1
50975.8
38621.9
4815.27
2249.6
6159.56
32561.2
44640
52367
57309.3
60229.7
61602
74646.7
72829.6
68894.1
62108.9
51112.6
37256.9
6598.65
2262.91
2319.93
25432.3
44849.3
52561.5
57421
60309.3
61661.6
74663.6
72865.8
68891.3
62119.3
53641.3
36478.7
8249.26
2284.48
2304.09
25869.4
40159.7
52864.8
57580.4
60408.3
61736.5
74747.8
73012.1
69141.3
63947.2
53672.8
39530.6
17421.9
2288.64
2294.92
22146.5
38224.1
49602.8
57759.9
60528.7
61800.9
74871
73168.4
70185
64116
55566.5
41228.8
17875.1
2284.94
2298.16
22335.7
37138.2
49623.7
55275.9
60567.4
61826
74944.7
73257.7
70325.2
64291.1
56529
41748.1
18494.7
2276.81
2299.25
21970.8
36817.4
47627.5
55113.1
60460.3
61742.1
74995.8
73320.1
70425.9
65309.6
56588.4
41796.1
18441.7
2300.83
2281.84
20813
36116.6
46362.1
54869.5
60291.2
61615.7
75027.1
73348.8
70462.8
65338.3
56593.1
41708
18510.4
2323.5
2266.68
18813.6
35370
45941.6
54635.3
60111.3
61463.7
75030.3
73354.2
70448.4
64433.4
56631.6
41745.7
18592.5
2299.65
2302.86
20217.1
35161.5
46547.2
54460.5
59959.4
61328.1
74992.6
73282.6
69504.8
64461.2
55856.9
41557.9
18220.8
2286.93
2297.07
20431.8
35227.6
48210.6
56772
59800.1
61182.6
74975.4
73231.8
69382
62789.5
54267.3
37712
17217.7
2282.1
2301.71
22204.7
39041
51751
56713.8
59694.3
61093.1
74993.2
73235.1
69419.7
62823.1
52044.8
37551.6
7529.98
2282.31
2305.89
25072.2
44182.5
51832.1
56746.6
59668.1
61044.8
75019.8
73272.5
69514
63018.6
51875.2
39436.3
5301
2254.16
2924.54
32954.9
44387
51876.1
56784.5
59659.3
61019.2
75032.3
73297.9
69585.9
63192.8
52083.7
40131.3
5059.03
2250.03
5590.11
33507.4
44663.8
51996.9
56828.8
59657.7
61004.6
76732.3
75332.2
72351.6
67565.9
57623.7
47089.5
4579.88
2316.04
22578.2
47299
54405.9
60247.8
63646.6
65615.1
66548.7
76691.7
75268.9
72216.8
67210.5
57056.8
45674.6
2317.51
2315.03
28302.2
48710.5
55062.7
60463
63743.9
65665.5
66576.4
76662.8
75218.8
72091.1
66725.7
58448.4
42970.5
10896.3
2314.04
3693.86
37447.9
55419.1
60560.3
63818.6
65734.4
66626.4
76675
75224
72024.7
66604.9
57858.3
41585.1
12788.5
2286.84
2298.13
36623.6
50047.7
61064.1
64009.8
65841.2
66698.6
76766.2
75365.9
72285.2
66813.9
57578.9
42781.8
19121.4
2297.02
2306.82
32373.6
48405.8
57672.7
64303.7
65972.7
66760.9
76905.1
75574.4
72295.2
66979.9
58498.9
44347.1
20617.8
2304.99
2311.55
34072.6
47430.4
57800.6
61497.2
66030.7
66779.1
76990.7
75690.2
72439.6
67240.8
59173.3
45717.3
29284.2
2218.65
2307.38
32011.5
46335.8
55243.7
61219.3
65883.8
66657.7
77051.6
75764.9
72558.2
67567.7
59253.8
45331.8
22573.7
2307.68
2286.13
27884.5
44296.4
53382.4
60849.2
65663.6
66490
77077.2
75789.5
72601.7
67594.6
59203.3
44889.2
20832.9
2336.33
2273.99
25974.1
42923.1
52649.4
60490.4
65426.1
66294.7
77076
75783.3
72588.5
67421.5
59236.1
45256.9
27142.5
2308.33
4458.36
27026.5
42654
53333.1
60228.1
65225
66126.9
77030.7
75680.3
72743.8
67446.8
58962.6
44869.4
22046.2
2296.24
2308.86
27442.8
42878.6
55351.2
62910.9
64993.6
65950.7
77012.4
75646.3
72646.8
67586.5
58789.8
43293.6
18971.5
2291.07
2303.3
30185.3
47852.4
59383
62793.3
64885.3
65854.5
77036.8
75682.1
72755.4
67756.7
60050.8
44127.3
13468
2323.99
6071.01
35992.7
54323.5
59552.6
62903.5
64881.5
65818.2
77074.4
75740.9
72883.7
68195.6
58436.1
47740
2328.08
2322.77
29539.8
49362.6
54479.5
59752.4
63010.6
64893.2
65806.1
77097.3
75786.4
72999.6
68542.6
59111.2
49342.7
9222.63
2320.23
31614.9
50160.6
54946.5
59958
63095.6
64912.2
65804
80889
80259.7
78963.6
78052.7
75169
81604.7
111162
89942.5
81213.7
73919.4
70073
71294.7
71844.3
72385.9
72692.3
80836.9
80163.9
78766.2
77423.2
73765.6
77945.5
95738.9
65551.2
74155.9
72251.2
70059.9
71351.4
71910.8
72424.9
72714.9
80792.4
80071.4
78582.1
76196.3
73514.9
63128.4
50514.7
21337.3
46890.4
61476.1
70159.3
71004.2
71894.6
72457.8
72744.1
80788.4
80026.8
78365.7
75804
68788.4
58134.3
33664.8
2649.52
2309.85
58854.5
65542.2
71414
72041.9
72554.2
72805.7
80869.8
80130.6
78577.5
74095
68260.3
55996.7
30045.5
2285.33
25076.9
58149.2
65112.4
68805
72243.3
72666.3
72857.3
81010.8
80345.3
77442.9
74262.3
67924.4
56801.2
34758.8
14509
64511.9
69732.1
65337.4
68879.6
69770.3
72634.7
72868.4
81093
80463.4
77529.9
74664.9
68244.2
58943.9
42155.6
2278.98
26311.5
60378
63077.3
66348.2
69477.9
72468.5
72727.4
81151.3
80538.6
77669.2
74130.3
68505.7
58852.9
35606.2
2315.34
8946.25
46885.1
59054.6
64024.1
69051.6
72238.6
72540.8
81164
80548.5
77712.7
74169.6
68419
58043.7
33792.1
2451.15
2299.33
42080.3
56701.8
63020.1
68627.1
71975.7
72319.2
81155.4
80531.5
77705.2
74874.3
68330
57708
34536.3
2340.82
8603.49
42482.8
56157.5
63690.5
68268
71754
72128.1
81103.1
80435.7
79070.4
74779
68719.1
57616.9
32380.7
10028.9
11381.9
43685.8
56500.9
65802.2
70707.5
71541.2
71917.6
81087.8
80436.2
79052.6
77014.2
70196.7
61128.1
34028.7
2268.51
12173.8
48946.7
62325.8
69470.6
70617.7
71429.8
71809.4
81121.8
80513.9
79294.3
77453.5
75802.6
64139.8
47645.4
29037.8
42356.7
58633.3
68667.2
69863
70793.6
71436
71778.2
81168.6
80608.9
79477.1
78698.2
76088.4
83277.2
111352
87981.4
81943.4
73502.6
69432.3
70474.1
70970.6
71462.1
71773.1
81198.5
80679.4
79634.7
79235
77242.2
85366.7
119701
103180
86023.5
74741.8
70054.8
70745.6
71076.4
71490.3
71775.6
86075.2
86282
86613.1
89081.7
92361.2
98035.5
123617
123737
110354
93637.9
85301.2
82381.8
80262.4
79475.1
79157.4
86031.9
86188.8
86471.8
88685
91650
98695.5
130772
138382
111935
93182.1
85222.6
82317.1
80300.5
79494.1
79173.4
85993.1
86062.5
86359.4
87249.5
90301.6
91568.3
117581
146839
123657
93100.6
85324
81905.4
80282.4
79488.2
79181.7
85985.2
86002.4
86089.9
86746.3
84459
87088.4
101233
125360
122794
91168.9
83253.1
81683.5
80250.3
79527.4
79215.5
86053.3
86070
86114.4
83994.5
83626
80066.1
69348.1
13252.6
64902.8
86333.5
82056.8
80088.1
80186.7
79542.1
79224.2
86183.7
86160.2
84406.1
84098
82013.3
78763.4
67439.1
2780.66
88189.7
98574.6
82174.4
79757.1
78528.6
79406.6
79193.3
86244.4
86233.9
84541.8
84367.3
81902.4
81648
83189
58148.1
78513
88570.9
80382.6
78243.1
78291.9
79223.5
79051.1
86283.2
86286.1
84669.2
83395.5
82506.2
83432.2
88490.6
94188.2
66698.9
77111.1
77253.5
76685.2
77869.1
79008.5
78870
86270.4
86268.5
84703.8
83442.7
82512.1
82874.2
84290.5
83828.8
62012.9
73492.9
75444.9
75800.7
77513.3
78755.6
78640.4
86245.3
86255.8
84682.3
84591.7
82292.8
81719.8
75857.7
38812.2
57709.3
73681
75086.9
76196.9
77230.3
78561.4
78444.5
86173.8
86256.2
86481.8
84751.1
83329.1
82019.4
78630
25984.7
65842.9
75688.3
75605.1
77494.9
78788.8
78428.4
78241
86148.9
86264.8
86609.3
87700
86382.7
90429.4
94519.6
98924.8
85213.7
82014.2
79899.4
79873.7
78821.2
78334.6
78133.7
86169.5
86339.6
86881.5
88284.1
92455.4
94774.7
119831
154324
115430
89396.6
83168.6
80485.9
78994
78339.6
78098.1
86198.3
86454.6
86955.1
89623.7
93289.6
100466
130329
132372
111261
92321
84114.6
81194
79135.1
78365.8
78086.1
86211
86508.8
87019.7
89850.5
93676
99393.7
124847
123543
108970
92223.1
84369.7
81337.8
79193.3
78375.8
78077.4
90968.9
91639.4
92624.7
95443.2
99634.6
100508
108113
113713
108545
99584.7
93861.5
90056.5
87079
85690.5
85009.9
90981.4
91642.1
92721.3
95807
100431
102853
113869
121511
111356
100791
94464.2
90252.2
87195.8
85730.9
85039.7
91016.8
91601.5
92945.4
95476.5
100501
104457
114624
131887
119662
104356
94890.3
90224.8
87322.6
85748.8
85066.8
91060.9
91631.8
92908.7
95667.2
97233.1
106170
122918
148010
133466
105469
94981.9
90114.5
87302.6
85781.1
85102.3
91125.3
91674.2
92860.9
93336.8
97026.5
102805
118913
174418
125822
102220
93840.2
89172.5
87208.1
85762.6
85100.4
91202.1
91613.8
91542.7
93228.1
95378.3
101206
117747
164985
114383
94872
92800.2
89033.1
86323.5
85614.6
85063.1
91232.6
91630.5
91640.7
93348.1
94955
102518
120845
165767
116143
99248.3
92730.1
88433.5
86205.2
85485.1
84948.6
91239.8
91637.9
91692.3
92451.5
95345.6
103993
126692
159643
122148
101580
92423.5
87808.5
85895.9
85275.5
84775
91185.9
91585.4
91664.1
92435.4
95383.3
104133
127654
144624
125795
102271
92057.3
87365.1
85560.4
84992.3
84519.5
91123.4
91543.7
91596.6
93359.3
95186.2
103530
125150
176679
134958
103457
91979.3
87252.8
85274
84756
84296.2
91041.9
91605.6
92887.9
93473.4
95931.2
103383
125428
183321
133258
103828
92054.5
87530.8
85865.8
84654.5
84094.4
90977.2
91573.4
92931.4
95836.2
97743.4
106985
123476
161591
130217
103501
92583.1
88388.9
85870.4
84548
83969.8
90920
91533.9
92935
95547.9
100317
105145
115288
130718
113476
101520
92577
88543.3
85855.5
84497.2
83892
90859
91545.3
92641.6
95682.9
100053
101411
109542
114612
107666
97897.3
92586.9
88704.6
85792.8
84463.7
83835.1
90808.8
91502.7
92486.4
95247.5
99400.3
99308
105526
109970
104979
96774.9
92074.4
88512
85712.1
84414.4
83791.7
94723.9
95410.2
96286.7
97927.7
101023
101335
102992
107897
103308
99684.8
96765.1
94018.2
91618.9
90344.6
89631.4
94813.8
95537.8
96558.4
98610.5
102123
102820
105331
107889
104790
100943
97564
94388.8
91820.4
90434.1
89695.5
94973.8
95665.9
97098.5
99333.7
103027
105152
109881
116446