/*--------------------------------*- C++ -*----------------------------------*\
| =========                 |                                                 |
| \\      /  F ield         | OpenFOAM: The Open Source CFD Toolbox           |
|  \\    /   O peration     | Version:  v2012                                 |
|   \\  /    A nd           | Website:  www.openfoam.com                      |
|    \\/     M anipulation  |                                                 |
\*---------------------------------------------------------------------------*/
FoamFile
{
    version     2.0;
    format      ascii;
    class       volScalarField;
    location    "0.02";
    object      p_rgh;
}
// * * * * * * * * * * * * * * * * * * * * * * * * * * * * * * * * * * * * * //

dimensions      [1 -1 -2 0 0 0 0];


internalField   nonuniform List<scalar> 
449343
(
105458
105599
105837
106076
106192
105984
105239
103888
101982
99728.6
97418.4
95325.1
93640.1
92473.1
91878.6
105468
105609
105848
106089
106206
105999
105256
103908
102006
99755.5
97446.8
95352.9
93666
92497.1
91901.6
105485
105628
105869
106113
106232
106027
105287
103945
102050
99806.3
97501.3
95406.3
93715.7
92543.1
91945.5
105510
105655
105899
106146
106268
106065
105331
103995
102110
99875.9
97577.1
95481
93785
92606.9
92006.1
105539
105687
105934
106186
106310
106110
105381
104054
102182
99958.9
97667.3
95569.8
93867.1
92682.3
92077.7
105571
105720
105972
106228
106355
106159
105437
104119
102259
100048
97762.9
95663.6
93953.5
92761.5
92152.9
105602
105753
106008
106268
106398
106208
105492
104182
102332
100133
97850.2
95750.9
94034.1
92835.9
92223.9
105629
105782
106039
106303
106436
106253
105541
104238
102394
100202
97921
95819.9
94099.2
92897.6
92283.7
105651
105804
106063
106329
106467
106289
105584
104285
102443
100248
97965.5
95863.7
94143.2
92941.7
92327.7
105667
105820
106079
106347
106487
106315
105614
104317
102472
100270
97984.7
95881.6
94164.8
92966.6
92354.3
105677
105829
106088
106356
106498
106331
105632
104332
102481
100271
97981
95878.2
94167.1
92974.3
92364.9
105682
105834
106091
106358
106502
106338
105639
104336
102477
100258
97962.1
95860.7
94155.4
92968.7
92362.8
105685
105835
106091
106356
106499
106337
105635
104328
102462
100236
97936.1
95837.1
94138
92956.8
92354
105686
105835
106089
106353
106495
106332
105628
104317
102445
100213
97911.9
95815.6
94121.3
92944.6
92344.3
105686
105835
106088
106351
106492
106328
105622
104308
102433
100200
97897.5
95802.9
94111.4
92937.1
92338.1
105294
105482
105818
106209
106506
106519
105907
104493
102334
99742.3
97135.2
94845.6
93052.8
91834.1
91219.7
105303
105492
105830
106223
106521
106535
105925
104515
102361
99773.9
97168.2
94876.6
93080.7
91859.4
91243.7
105321
105511
105853
106249
106550
106566
105957
104555
102411
99834.7
97232.9
94937.1
93134.6
91908
91289.5
105346
105539
105884
106286
106590
106604
105999
104602
102476
99917.5
97324.3
95022.9
93210.2
91975.5
91353
105376
105572
105923
106331
106639
106648
106052
104668
102547
100017
97436.1
95127
93300.6
92055.7
91428
105408
105608
105964
106379
106691
106702
106108
104738
102640
100125
97555.4
95238.4
93396.7
92140.2
91506.9
105439
105642
106004
106424
106737
106760
106170
104808
102727
100229
97673.7
95343.5
93486
92219.9
91581.6
105467
105671
106036
106461
106777
106807
106220
104822
102791
100305
97756.4
95421.1
93556
92285.3
91644.2
105489
105693
106059
106487
106807
106845
106269
104921
102851
100356
97799.6
95465.3
93601.9
92330.8
91689.8
105504
105708
106072
106500
106827
106866
106298
104955
102878
100369
97797.7
95474.2
93620.9
92355
91716.4
105514
105716
106078
106503
106832
106879
106317
104970
102878
100362
97778.8
95457.9
93617.6
92360.6
91725.9
105519
105719
106078
106501
106830
106890
106326
104972
102880
100335
97740.9
95427.8
93599.7
92351.8
91722
105522
105720
106076
106495
106823
106886
106321
104963
102855
100297
97697.3
95392
93575.5
92336.5
91710.8
105523
105720
106072
106489
106815
106877
106310
104943
102826
100259
97659.1
95361.1
93553.5
92321.1
91698.8
105523
105719
106071
106486
106810
106871
106301
104931
102808
100238
97637.9
95343.6
93540.7
92311.8
91691.3
104875
105171
105733
106484
107246
107820
107614
106037
103202
99722.4
96387.2
93653.3
91628
90300.4
89645.2
104884
105181
105745
106500
107265
107840
107634
106065
103238
99765.7
96430.8
93691.4
91660.2
90328.6
89671.4
104902
105201
105771
106532
107303
107880
107668
106116
103303
99853.9
96521.2
93767.9
91723.1
90382.9
89721.7
104927
105230
105807
106578
107357
107923
107697
106174
103368
99972.6
96656
93880.6
91812.7
90458.9
89791.5
104957
105266
105854
106637
107421
107962
107709
106196
103429
100133
96822
94018.9
91921.8
90549.6
89874.1
104991
105305
105904
106699
107495
108015
107758
106282
103558
100299
97017.2
94171.8
92038.3
90646
89961.3
105023
105342
105949
106761
107545
108091
107831
106375
103679
100436
97255.7
94319.1
92150.4
90737.3
90043.9
105051
105373
105984
106804
107595
108160
107921
106389
103765
100531
97360.1
94413.9
92232.4
90811.2
90113.1
105073
105394
106006
106826
107619
108188
107948
106517
103840
100591
97409
94462.5
92282.7
90860.8
90162.6
105089
105407
106016
106826
107639
108197
107980
106551
103866
100598
97315.9
94452.4
92295
90884.8
90190.6
105098
105412
106011
106815
107623
108217
108013
106559
103848
100563
97241
94409.5
92281.7
90886.3
90198.5
105103
105414
106006
106802
107612
108236
108071
106620
103872
100485
97155.5
94349.3
92249.3
90870.9
90190.4
105106
105413
105998
106786
107587
108222
108071
106584
103826
100400
97060.5
94282.7
92209.9
90847.3
90173.8
105108
105412
105993
106773
107568
108201
108050
106543
103767
100321
96986.6
94229.8
92175.8
90824.7
90156.6
105108
105412
105990
106767
107558
108190
108036
106519
103732
100280
96948.4
94201.3
92156.4
90811.3
90146.1
104073
104525
105427
106757
108382
109999
110963
109073
104747
99400.8
94834.7
91490
89195.6
87763.2
87077.4
104081
104534
105440
106775
108406
110025
110981
109108
104795
99461.6
94893
91536.6
89232.8
87794.9
87106.6
104097
104554
105468
106817
108461
110084
111021
109190
104904
99613
95024
91632.8
89306.3
87856.4
87162.6
104120
104583
105510
106881
108540
110170
110927
109297
104958
99865.6
95244.7
91779.8
89412.2
87942.6
87240.4
104149
104620
105566
106961
108648
110197
110233
109095
105825
100206
95526.1
91973.7
89542.7
88045.5
87332.2
104182
104663
105635
107082
108789
109475
110195
109176
106041
101579
95881.2
92191.1
89686.2
88153.7
87428.8
104214
104704
105694
107167
108185
109577
110257
109271
106180
101785
97271.7
92384.7
89822.1
88258.7
87520.9
104242
104737
105735
107219
108231
109665
110369
109285
106304
101936
97388.9
92501
89927.7
88347.1
87598
104266
104758
105752
107236
108262
109696
110403
109441
106399
102026
97488.8
92563.8
89980.6
88401.9
87655.3
104283
104769
105753
107219
108949
109675
110433
109502
106438
102052
96311.7
92554.4
89998.3
88430.5
87687.9
104294
104771
105728
107146
108876
110479
110559
109541
106434
100802
96090.4
92466.9
89972.4
88431.2
87696.2
104302
104772
105716
107117
108819
110514
111374
109876
105662
100577
95899.3
92357.4
89924
88409
87683.7
104307
104773
105703
107081
108768
110443
111484
109765
105569
100311
95694.6
92245.6
89864.3
88374.2
87659.4
104311
104772
105695
107060
108731
110397
111439
109670
105432
100137
95556.3
92159.7
89812.9
88341.3
87634.8
104312
104772
105691
107051
108715
110376
111421
109623
105366
100059
95489.1
92114.4
89784
88322
87619.9
102691
103313
104605
106664
109555
113175
117063
114417
107079
98002.7
91763.9
87947
85556.8
84153.6
83511
102696
103320
104616
106682
109582
113209
117079
114449
107148
98093.7
91837.2
87998.6
85597.1
84188.2
83542.8
102707
103335
104640
106727
109662
113306
117147
114538
107347
98311.1
92004.2
88104.9
85676.7
84255.2
83603.7
102724
103358
104682
106825
109863
113549
114899
114736
109067
98995.6
92376.7
88286.8
85791.1
84348.3
83687.6
102745
103387
104742
106935
110022
112103
114967
114824
109406
101501
92806.3
88509
85933.1
84456.8
83785.5
102771
103430
104835
107190
109219
112364
115103
114873
109597
102019
95228.5
88816
86073.8
84574.3
83887.4
102796
103458
104875
106640
109325
112543
114266
114329
110097
103228
95682.1
90832.3
86182.7
84670.7
83982.5
102825
103495
104967
106667
109414
112648
114391
114467
110342
103513
95982.7
91049.7
86403.1
84764.7
84071.8
102848
103512
104931
106687
109440
112688
114440
114589
110460
103664
96097
91147.3
86377.7
84837.4
84133.9
102875
103540
104957
107331
109375
112611
114513
114639
110497
102769
95923.1
89294
86458.3
84897
84180
102894
103541
104906
107124
110261
112456
115393
115372
110210
102595
93615.2
89157.2
86454
84899.9
84193.4
102912
103554
104894
107066
110150
113911
115380
115465
110160
100100
93287.6
89019.2
86400
84878.3
84179.6
102926
103560
104881
106995
109973
113694
117633
115284
108222
99272
92864.6
88844.9
86320.7
84832.6
84147.7
102935
103566
104877
106971
109911
113596
117563
115113
107929
98950.4
92643.5
88725.4
86251.2
84788.4
84115
102940
103569
104876
106961
109891
113563
117539
115021
107803
98796.4
92535.3
88660.9
86211.7
84762.4
84095
100484
101226
102829
105581
109976
116911
122562
127943
114278
93170.6
85962.2
82473.5
80461.1
79405.6
78961
100484
101226
102832
105592
110001
116941
122577
127970
114331
93270
86036.1
82521.3
80500.9
79441.7
78994.9
100485
101229
102840
105607
110049
117022
122613
128036
114445
93429.6
86147.6
82594.4
80575.2
79510.1
79059.1
100486
101236
102864
105693
110448
114905
122774
128257
114708
98218.6
86528.7
82687
80676.8
79605.1
79146.3
100486
101234
102871
105791
109282
115225
123145
126005
116366
99389.5
90120.8
82842.9
80750.2
79698.5
79244
100496
101241
102958
105439
109447
114380
121463
125139
116789
102106
90676.3
85505.5
80843.4
79784
79341.9
100502
101233
102980
105516
109642
114469
120653
125303
117595
103481
92727.4
85823.7
80910.3
79854.7
79430.3
100521
101241
103041
105622
109055
114046
120785
125524
118007
103957
93072.1
86089.1
83021.3
79921.3
79519.1
100556
101289
103043
105621
109084
114568
120867
125693
118304
104277
93302.2
86197
81179
80046.1
79596.3
100605
101351
103074
105545
109709
114616
120857
125743
118338
104340
93397.9
86265.6
81301.8
80143.7
79660.8
100640
101392
103034
105977
109492
115592
121700
126756
117903
103221
91540.1
83696.5
81373.8
80199.6
79688.4
100683
101439
103080
105924
110710
115269
123335
129266
116462
100203
87791
83612.7
81392.4
80194.1
79677.4
100712
101461
103083
105870
110338
117365
123129
128917
115959
94851
87249.3
83482.4
81304.3
80137.7
79638.1
100734
101482
103099
105879
110317
117301
123034
128681
115420
94392.5
87005.7
83355.8
81221.6
80083.6
79597
100744
101491
103106
105877
110299
117278
123017
128565
115145
94141.1
86856.4
83272.6
81171.5
80050.3
79571.5
97234.5
97946.1
99539
102449
107423
114289
130819
160826
117957
85212.9
75432.3
74333.9
73744.5
73599
73579.4
97227.5
97937.6
99528.3
102436
107415
114288
130800
160819
117979
85271.4
75481.6
74366.2
73783.2
73637.3
73616.2
97211.6
97915.1
99494.7
102369
107313
114273
130714
160782
118077
85453.4
75486.4
74403.2
73848
73704.5
73684.3
97188.1
97884.1
99448
102182
106743
114646
130712
160662
118201
85959.3
79208.3
74291.8
73924.9
73792.4
73775.2
97148.5
97816.5
99288.8
102299
106780
113785
127784
160537
120043
90678.5
79425.7
76807
73890
73872.3
73871.2
97114.2
97710.4
99806.9
102374
106562
113766
126375
155539
125652
93507.7
82217.6
76984.4
75820.5
73919.3
73965
97103.1
97687.9
99827.6
102397
106613
113384
126296
155503
126121
94223.7
83977.6
78890.5
75930.1
74038.1
74063.5
97105.1
97689.3
99914.6
102449
106644
113393
126318
155759
127791
95460
84594.4
79221.8
76150.7
74147.3
74131.3
97159.8
97744.2
99900.7
102496
106694
113429
126375
155986
128959
96376.6
85048.7
79472.3
76255.2
74226.4
74231.1
97226.9
97822.2
99930.9
102455
106714
113479
126431
155887
127880
95971.8
85051
79545.8
76366.8
74281.9
74285.1
97310.6
97980.8
99450.2
102462
106940
113954
126547
155934
128031
95732.6
83788
77910.6
74589.3
74400.9
74324.2
97395.9
98094.7
99667.1
102393
106849
114758
128034
161030
123519
93684.1
81158.2
75401.7
74714.8
74406.2
74314.3
97452.9
98159.3
99742.8
102630
107572
114531
130937
161184
121454
88143.5
76806
75404.6
74624.8
74348.4
74265.9
97492.9
98206.9
99804.5
102720
107705
114592
131066
161242
119483
86881.5
76577.9
75267.9
74532.8
74286.2
74215.3
97511.7
98226.9
99826.1
102745
107728
114602
131145
161262
118868
86340.1
76403.3
75176.8
74472.8
74245.2
74183.4
92883.8
93306.7
94253.9
96006.8
98912.6
105655
113077
110665
25111.3
54625.4
60390
63740.3
65865.2
67203.8
67818.3
92872
93291.8
94233.7
95976
98882.3
105611
113038
110554
24504.9
54656.9
60407.5
63782.5
65918.7
67250.7
67862.2
92843.4
93248.9
94176
95912.5
98775.1
105493
112913
110392
24653.2
54890.9
60515.3
63916.7
66022.2
67338.1
67945.4
92800.5
93175.5
94068.8
95637.6
100088
105046
112596
110093
25352
55595.8
62251.2
64219
66189.8
67460.1
68061.7
92732
93067.8
93871.3
96807.1
99826.2
105443
113292
109566
32048.6
60423.5
64411.7
65847.2
66460.4
67628.1
68193.6
92651.5
92969.8
95041.5
96707.7
100324
105671
112965
108855
46114.2
62493
66081.4
66257.3
67783
67838.7
68323.9
92643.4
92950.8
95041
96645.2
100595
105585
112771
108398
37306.9
63005.7
66830.7
67643
67950.3
68020.6
68457.5
92654.9
92949.8
95033.1
97332.1
100602
105553
112683
108058
46828.6
65423.3
67769.7
68611.8
68192
68149.8
68537.6
92704.1
93009.7
95066.5
97350.6
100627
105572
112684
108034
67781.4
68427.6
68494.3
68904.3
68274.4
68190.1
68603.8
92773.3
93088.2
95140.6
96746.1
100665
105636
112750
108131
44738
66256.3
68279.9
68307.3
68309.5
68163.9
68604.9
92907.2
93246.1
94048.4
96892.1
100469
105752
112898
108179
47326.8
65217.5
67806.3
67014.4
67096.8
68099.4
68599.3
93026.3
93401.2
94293.7
95849.3
100162
104814
112124
108730
54581.1
63033.4
64436.5
65343.9
66940.7
68027.2
68551.5
93107.2
93514.5
94442.1
96172.4
99011.9
105416
112691
109530
43947.2
58391.2
61941
64920.7
66765.3
67934.1
68474.1
93162.9
93584.8
94528.8
96269
99168.1
105795
113091
110293
26498.7
56421.3
61512.3
64653.5
66624.1
67847.3
68405.5
93188.1
93613.8
94564.8
96319.3
99219.9
105919
113286
110695
25171.1
55723.5
61341.7
64543.5
66545.1
67795.8
68365.3
87707.1
87596.7
87355.6
86999.9
86926.4
90981.1
94720.3
107893
2746.39
33251.8
46563.1
53740.8
58479.7
61262.5
62517.9
87698.2
87584.6
87341
86979.4
86916.5
90941.5
94680.1
107697
3961.76
33361.5
46587.2
53828.6
58556.6
61323.5
62573.1
87676.9
87553.8
87303.5
86974.5
86880
90836.8
94566.5
107593
4142.54
33587.6
46812.1
54044.4
58714.1
61449.2
62681.3
87648.8
87495.1
87228.2
87033.1
89690.7
90775.4
94320.4
107425
3357.97
34126.4
47272.4
54538.4
58975.7
61640.8
62840.6
87612.6
87432.9
87235.7
89078.7
89713.3
92589.8
95325
107334
6331.16
34672.7
48321.4
55544.1
59344.8
61900.4
63034.7
87567.5
87474.8
88827.6
89016
90950.9
93354.7
95144.3
106874
2299.8
35291.5
49164.6
55886.6
60206.2
62154.9
63224.6
87590.4
87502.3
88761.6
89016.4
91593.9
93261.4
95016.8
106707
4633.65
35739.1
49733.8
56590.7
60418.5
62332.2
63368.1
87613.5
87517.8
88752.7
90013.6
91576.1
93227.3
94957.2
106563
2432.35
36843.5
50456.7
57175.6
60588.8
62449.7
63442.2
87658.4
87568.8
88785.8
90032.9
91599.9
93243.7
94959.4
106606
2409.36
38745.3
51049.9
57399.9
60668.9
62462.8
63472.2
87704.2
87600.5
88865.2
89143.9
91655.1
93312.1
95021.6
106702
2364.19
38062.2
50862.8
57123.9
60665.6
62401.1
63426
87809.3
87638.4
87430.3
89168.6
91109.6
93450.7
95152.3
106830
2290.61
36441.1
50292
56429.2
59815
62238.8
63330.3
87904.8
87753.8
87496.8
87282.3
89934.9
91052.5
94471
107322
2328.94
35585.7
48886.1
55329.6
59550.4
62071.4
63209.8
87976.2
87855.6
87607.8
87279.1
87169.8
91008.2
94534.7
107481
2444.27
34946.6
47766.4
54806.5
59290.4
61909.6
63087.3
88028.4
87918.3
87678.6
87318.4
87253.6
91173.8
94819.4
107784
2520.86
34472.5
47374
54507.2
59115.2
61792.4
62996.6
88053.3
87947.5
87713.6
87363.3
87290.3
91297.1
94989.9
107985
2569.61
34110
47293.8
54390.9
59028.9
61734.3
62948.8
82411.3
81704.2
80240.6
77925
77534.9
76327.1
78812.1
2169.32
25192.4
39209.5
47647.3
53536.1
57076.9
58732.2
82410.7
81700.7
80235.1
77920.5
77515.7
76299
78782.7
2202.71
25293
39286.7
47764.2
53622.9
57148.5
58794.1
82412.5
81702.4
80226.8
77911.5
77536.4
76278.3
78703.2
2220.25
25255
39539.9
47971.8
53790.3
57290.3
58912.4
82428.2
81712.7
80204.8
78077.4
77828.8
76213.4
78531.1
2226.96
25559.4
38655.5
48418.5
54051.7
57504.8
59084.7
82464.9
81748.6
80401.8
80248.8
78414.7
78330.3
79214
2244.2
23384
38367.4
48244.1
54387.2
57770.7
59289.4
82510.6
81930.4
81916.9
80531.3
79798.8
79314.2
79167.1
2270.63
23075.4
38344.5
48482.7
54402
57950.8
59484.8
82565.8
81994.1
81937.3
80661.6
80621.5
79364.1
79163
2275.65
23350
38738.3
48489.3
54603.7
58056.1
59590.4
82602.1
82034.6
81967.1
81559.9
80750.3
79393.2
79173
2236.95
23885.6
39178.3
48648.2
54689.5
58121.3
59630.5
82645.3
82074.7
81999.8
81606.6
80780.7
79415.1
79186.4
2303.96
24903.5
39462.8
48756.8
54715.5
58098.3
59627.6
82663.7
82079.8
82040.7
80781.3
80714.7
79434.5
79211.6
2291.59
24599
39279.1
48714.8
54682.5
58036.4
59562.5
82697.7
81986.7
80629.9
80476.5
79929.7
79439
79267
2304.27
23463.3
38823
48639.3
54564.2
57912.1
59419.4
82728.6
82017.8
80537.4
78398.9
78189
76632.2
78455.4
2248.14
23965.6
39320
48749
54320.9
57714.5
59268.7
82762.8
82060
80595.6
78296.6
77906.4
76571.8
78867.4
2383.62
25748
39945.2
48343.4
54095.9
57539.2
59133.6
82796.9
82096.3
80645.8
78343.7
77965.4
76689.7
79093.9
2378.39
25805.8
39728.6
48171.5
53963
57428.5
59042.2
82815.9
82119
80673.7
78378.6
77964.3
76769.2
79241.1
2401.1
25784.5
39710.8
48086.6
53901.6
57378.3
58997.3
77920.4
76653.4
74001.1
69398.8
66997.8
59186
54756.9
2163.09
2163.97
24450
36906.8
45785.2
51786.1
55468.6
57239.9
77924.9
76653.5
73990.7
69375.4
66961.8
59139
54729.7
2304.17
2196.42
24253.4
37099.5
45886.8
51893.1
55551
57299
77940.3
76668.5
73980.2
69300.4
66916.2
59044.1
54655.4
2291.45
2217.64
20879.6
37411.4
46093.7
52042.5
55681.6
57399.7
77982.2
76718.5
73948
69317.7
66891.3
58910.8
54603.3
2874.55
2234.66
21500.1
34994.9
46375.4
52269.4
55863.5
57546.9
78066.1
76789.6
73989.1
72410.2
66707.1
61889.7
56520.7
3004.27
2265.29
19164.2
33890.1
44886.7
52493.4
56089
57709.9
78160.7
76895.3
76049.3
72373.2
68784
63300.4
56644.7
2767.28
2276.85
19046.9
33424.6
45034.8
51531.7
56200.6
57857.3
78230.5
76961.3
76097.1
72326.2
69717.2
63377.3
56782.3
4096.04
2277.36
19384.9
33745.9
44335.3
51651.4
56233.5
57903
78277
77017.1
76132.2
73780.9
69757.9
63445.4
56873.9
4512.42
2288.8
20529.1
34117.3
44068.7
51673.6
56231.5
57896.8
78324.9
77058.2
76177.7
73837.6
69797
63474.5
56885.5
4270.56
2304.62
20458.1
34081.3
44041.5
51633.3
56170.2
57853.6
78342.5
77082.3
76243.3
72489.2
69859.9
63477.5
56834
2485.77
2310.96
19634.7
33698.1
44247.2
51539.4
56097.2
57777.7
78339.8
77071.2
74293.7
72717.4
69026.7
63495
56805.8
2324.18
2288.22
18900.3
33356.3
44850.2
52359.3
55991.8
57638.6
78337.1
77083.7
74350.9
69743.8
67216.4
59254.6
54915.5
2296.52
2351.38
19913.2
35150.3
46316.4
52223.6
55820.8
57512.3
78354.2
77099.8
74442.1
69810.7
67333.8
59428.5
55002.7
2287.06
2373.27
21375.7
37524.3
46154.6
52093.4
55689.5
57407.6
78380.6
77128.7
74503.4
69927.5
67496.7
59637.9
55216.3
2686.11
2386.2
24373.9
37365.2
46081.2
52025.1
55619.1
57341.8
78397.2
77150.8
74537.9
69984.9
67574
59800.2
55445.6
2532.36
2407.01
24552.7
37416.3
46040.3
52002
55587.4
57313.3
75079.6
73371.7
69753.7
63394.5
52566.1
42645.8
17803.5
2279.53
2188.64
25890.4
38587.5
47342.3
53100.3
56578.4
58234
75080.6
73365.3
69720.2
63328.2
52438.8
42493.1
17782.8
2270.66
2195.96
26066.1
38833.8
47472.8
53187.9
56644.2
58286.2
75093
73372.8
69696.1
63263.8
52254.2
42106.1
17670.8
2260.24
2218.51
21566.1
39031.3
47660.2
53329.2
56753.4
58375.7
75132.3
73430.7
69665.9
63230.3
56904.9
41787.3
17665
2278.93
2238.78
21788
35387.3
47879
53499.1
56888
58487.3
75222.6
73540.3
69785.6
66047.6
57024.3
45814.4
24233.9
2282.51
2275.04
18765.5
33796.2
45314.1
53664.4
57050.9
58597.2
75338
73647.3
71583.4
66164.8
59444.9
47891.6
25202.8
2333.7
2276.15
18858.7
33028.4
45373
51827.1
57113.1
58679.2
75416.3
73724.2
71722.7
66239.2
60572.6
48106.3
25494.1
2277.24
2282.1
19298.2
33207.6
44041.9
51819.4
57081.7
58664.5
75473.1
73792.7
71800.4
67693.8
60616.2
48215.1
25570.5
2323.68
2282.5
21790.2
33386.1
43345.2
51729.2
57007.4
58609
75525.9
73839.4
71849.8
67751
60659.6
48250.4
25668.2
2862.6
2299.46
19027.9
32940.6
43155.1
51614.1
56902.5
58521.4
75550.4
73874.1
71890.4
66413.3
60730.3
48229.7
25508.2
2293.19
2305.94
18239.2
32480.5
43573.6
51494.5
56806.5
58430.3
75543.4
73873.8
70172.6
66536.9
59734.4
48166
25409.1
2279.43
2275.49
18146.5
32339.7
44745.8
53186
56701.9
58308.7
75547
73871.2
70176.2
63822.7
57510.8
42434.4
19776.2
2273.64
2290.42
19519.3
35093.9
47427.7
53137.9
56588.6
58221.1
75575.6
73889.3
70274.2
63933.5
52988.6
42601.3
18110.1
2256.71
2377.42
21474.4
38912.5
47446.9
53110.4
56534.5
58163.2
75610.3
73930.3
70355.6
64054.1
53237.4
43029.1
18220
2249.5
2392.77
26195.1
39050.4
47456.1
53103.6
56509.7
58132.7
75632.5
73961.5
70414.6
64154.5
53412.8
43385.7
18454.6
2265.95
2414.78
26625.3
39184.8
47497.4
53120.7
56502.3
58120.6
74554
72759.2
68926.1
62357
51065.1
39218.4
5174.93
2283.57
2180.15
30940.2
43941.2
52048.5
57092.4
60046.9
61436
74545.3
72738.4
68856.6
62187.4
50858.1
38504.2
4692.66
2249.33
6041.85
32443.5
44522.3
52249.3
57191.5
60112
61484.3
74548.6
72731.5
68796
62010.8
51014.5
37153.9
6495.64
2262.29
2220.46
25329.3
44751.2
52463.4
57322.9
60211.2
61563.5
74585.1
72787.4
68812.8
62040.9
53557.9
36395.3
8165.88
2283.22
2226.43
25786
40076.3
52786.4
57501.9
60329.8
61658
74688.9
72953.2
69082.4
63883.4
53609.1
39464.4
17354.4
2288.52
2266.47
22079.1
38157.9
49539
57701
60469.9
61742
74831.7
73129.1
70140.9
64071.8
55519.9
41181
17827.3
2284.76
2278.41
22287.8
37090.4
49579.6
55231.7
60528.2
61786.7
74925.1
73238.1
70300.7
64266.6
56500.8
41719.9
18466.4
2276.58
2286.7
21942.6
36789.2
47600.6
55088.6
60440.6
61722.5
74995.8
73320.1
70421
65302.2
56579.9
41787.5
18433.1
2300.07
2281.38
20804.4
36108
46353.5
54864.6
60291.2
61615.7
75046.8
73368.4
70477.5
65350.6
56604.1
41719
18521.5
2331.33
2269.96
18824.6
35381.1
45952.6
54650
60130.9
61483.4
75069.6
73393.4
70482.8
64467.7
56662.3
41776.4
18623.2
2309.8
2329.82
20247.8
35192.2
46579.1
54494.8
59998.6
61367.3
75051.5
73341.5
69563.7
64515.1
55908.4
41608.2
18271.1
2287.18
2304.96
20482.1
35277.8
48264.5
56830.9
59858.9
61241.5
75053.8
73310.3
69460.5
62867.9
54340.9
37785.6
17288.9
2282.19
2329.25
22275.8
39114.6
51829.4
56792.3
59772.8
61171.6
75091.3
73333.2
69517.8
62921.2
52142.9
37644.8
7623.17
2282.56
2385.16
25165.4
44280.6
51930.2
56844.7
59766.2
61142.9
75137.6
73390.2
69631.7
63136.3
51993
39554
5413.81
2254.35
3042.08
33072.6
44504.7
51993.8
56902.2
59777
61136.9
75169.7
73435.3
69723.3
63330.2
52221.1
40268.7
5191.46
2250.22
5727.41
33644.8
44801.1
52134.2
56966.1
59795.1
61142
76595
75194.8
72214.3
67428.6
57486.4
46952.2
4442.98
2244.31
22440.9
47161.6
54268.5
60110.5
63509.2
65477.8
66411.4
76574
75151.2
72099.1
67092.8
56939.1
45556.8
2227.31
2284.44
28184.5
48592.8
54945
60345.3
63626.2
65547.8
66458.7
76564.7
75120.7
71993
66627.6
58350.3
42867.5
10793.3
2313.37
3591.04
37344.9
55321
60462.2
63720.5
65636.3
66528.3
76596.6
75145.5
71946.2
66526.4
57774.9
41501.7
12705.1
2286.59
2235.2
36540.2
49964.3
60985.6
63931.4
65762.8
66620.1
76707.3
75307.1
72226.4
66750.1
57515.1
42715.6
19053.9
2295.54
2252.28
32306.1
48339.6
57608.9
64244.8
65913.9
66702
76865.9
75535.1
72251
66935.7
58452.3
44299.3
20570
2285.76
2270.88
34024.8
47382.6
57756.4
61453
65991.4
66739.9
76971
75670.6
72415.1
67216.3
59145.1
45689.1
29256
2216.92
2283.44
31983.3
46307.6
55216.8
61194.7
65864.2
66638.1
77051.6
75764.9
72553.3
67560.3
59245.2
45323.2
22565.1
2306.56
2284.97
27875.9
44287.8
53373.9
60844.3
65663.6
66490
77096.8
75809.1
72616.4
67606.9
59214.3
44900.2
20843.9
2336.7
2277.91
25985.2
42934.2
52660.5
60505.2
65445.7
66314.4
77115.2
75822.5
72622.9
67455.8
59266.7
45287.5
27173.2
2310.22
4489.01
27057.2
42684.7
53365
60262.4
65264.3
66166.1
77089.6
75739.2
72802.7
67500.7
59014.1
44919.6
22096.4
2322.23
2343.88
27493.1
42928.9
55405.2
62969.8
65052.5
66009.6
77090.9
75724.8
72725.3
67665
58863.4
43367.2
19042.6
2298.48
2357.79
30256.5
47926
59461.5
62871.8
64963.8
65933
77134.9
75780.2
72853.5
67854.8
60148.9
44220.5
13561.2
2324.48
6164.13
36085.9
54421.6
59650.7
63001.6
64979.6
65916.3
77192.1
75858.6
73001.5
68313.3
58553.8
47857.8
2425.66
2356.95
29657.5
49480.3
54597.2
59870.1
63128.4
65010.9
65923.8
77234.6
75923.7
73137
68679.9
59248.6
49480
9359.79
2399.26
31752.2
50297.9
55083.8
60095.3
63232.9
65049.6
65941.3
80751.6
80122.4
78826.3
77915.3
75031.7
81467.3
111025
89805.2
81076.3
73782.1
69935.6
71157.4
71707
72248.6
72554.9
80719.2
80046.1
78648.4
77305.4
73647.9
77827.8
95621.1
65433.5
74038.1
72133.5
69942.2
71233.7
71793.1
72307.2
72597.1
80694.3
79973.3
78484
76098.2
73416.8
63025.3
50411.7
21234.4
46787.4
61373.1
70061.2
70906.1
71796.5
72359.7
72646
80709.9
79948.4
78287.2
75725.5
68705.1
58050.9
33581.4
2569.04
2242.94
58771.1
65458.8
71335.5
71963.4
72475.7
72727.2
80811
80071.7
78518.6
74031.2
68196.6
55930.5
29978
2241.35
25009.5
58081.8
65046.2
68741.3
72184.5
72607.4
72798.5
80971.6
80306.1
77398.7
74218.2
67877.8
56753.4
34711
14461.3
64464.1
69684.3
65289.6
68835.4
69726.2
72595.5
72829.1
81073.3
80443.7
77505.4
74640.4
68216
58915.7
42127.4
2271.01
26283.3
60349.8
63049.1
66321.3
69453.4
72448.9
72707.8
81151.3
80538.6
77664.3
74122.9
68497.1
58844.4
35597.6
2314.04
8937.67
46876.5
59046
64015.5
69046.7
72238.6
72540.8
81183.6
80568.1
77727.4
74181.9
68430
58054.7
33803.1
2454.97
2307.16
42091.4
56712.8
63031.1
68641.8
71995.3
72338.9
81194.7
80570.8
77739.5
74908.7
68360.6
57738.7
34567
2364.57
8634.15
42513.4
56188.2
63722.4
68302.4
71793.3
72167.4
81161.9
80494.6
79129.3
74833
68770.6
57667.1
32431
10079.2
11432.1
43736.1
56551.2
65856.1
70766.4
71600
71976.5
81166.3
80514.6
79131.1
77092.7
70270.3
61201.7
34099.8
2337.37
12243.7
49017.8
62399.3
69549.1
70696.2
71508.3
71887.9
81219.9
80612
79392.4
77551.6
75900.7
64233
47738.6
29131
42449.9
58726.5
68765.3
69961.1
70891.7
71534.1
71876.3
81286.3
80726.6
79594.8
78815.9
76206.1
83394.9
111470
88099.1
82061.1
73620.3
69550.1
70591.8
71088.3
71579.8
71890.8
81335.8
80816.8
79772
79372.3
77379.5
85504.1
119838
103317
86160.9
74879.2
70192.2
70883
71213.7
71627.6
71912.9
85937.9
86144.6
86475.7
88944.4
92223.8
97898.2
123480
123600
110217
93500.5
85163.9
82244.5
80125.1
79337.7
79020
85914.2
86071.1
86354.1
88567.3
91532.2
98577.8
130655
138265
111818
93064.4
85104.9
82199.4
80182.8
79376.4
79055.7
85895
85964.4
86261.3
87151.4
90203.5
91465.3
117478
146736
123554
92997.6
85225.9
81807.3
80184.3
79390.1
79083.6
85906.8
85923.9
86011.4
86667.8
84375.6
87005
101150
125274
122708
91085.6
83169.7
81605
80171.8
79448.9
79137
85994.5
86011.2
86055.5
83930.8
83562.2
79999.9
69280.6
13185.2
64835.3
86266
81990.6
80024.3
80127.9
79483.2
79165.3
86144.5
86121
84361.9
84053.8
81966.7
78715.6
67391.2
2758.39
88141.9
98526.7
82126.6
79713
78484.4
79367.4
79154
86224.7
86214.3
84517.3
84342.7
81874.2
81619.8
83160.8
58119.9
78484.8
88542.7
80354.4
78216.2
78267.4
79203.9
79031.5
86283.2
86286.1
84664.3
83388.1
82497.6
83423.6
88482
94179.6
66690.3
77102.5
77245
76676.6
77864.2
79008.5
78870
86290
86288.2
84718.5
83455
82523.1
82885.3
84301.5
83839.9
62023.9
73504
75456
75811.7
77528
78775.2
78660.1
86284.5
86295.1
84716.6
84626
82323.5
81750.5
75888.4
38842.8
57739.9
73711.6
75117.6
76228.8
77264.7
78600.6
78483.8
86232.6
86315.1
86540.6
84805.1
83380.6
82069.7
78680.3
26035
65893.1
75738.5
75655.4
77548.8
78847.6
78487.3
78299.8
86227.3
86343.3
86687.8
87778.4
86456.3
90502.9
94590.7
98994.7
85283.6
82085.4
79972.9
79952.2
78899.7
78413.1
78212.2
86267.6
86437.7
86979.6
88382.2
92553.5
94867.9
119924
154417
115523
89489.8
83266.7
80584
79092.1
78437.7
78196.2
86316
86572.4
87072.8
89741.4
93407.3
100584
130447
132490
111379
92438.7
84232.3
81311.7
79252.8
78483.5
78203.8
86348.3
86646.1
87157
89987.9
93813.3
99531.1
124984
123680
109108
92360.5
84507
81475.1
79330.7
78513.1
78214.8
90831.5
91502
92487.4
95305.9
99497.3
100370
107976
113576
108407
99447.3
93724.1
89919.1
86941.6
85553.2
84872.6
90863.6
91524.4
92603.6
95689.2
100313
102736
113752
121393
111239
100673
94346.5
90134.4
87078
85613.2
84922
90918.7
91503.4
92847.3
95378.4
100403
104354
114521
131784
119559
104253
94792.2
90126.7
87224.5
85650.7
84968.7
90982.5
91553.3
92830.2
95588.7
97149.8
106087
122835
147924
133380
105386
94898.5
90036
87224.1
85702.7
85023.9
91066.4
91615.3
92802
93273
96962.8
102739
118846
174351
125755
102153
93774
89108.7
87149.3
85703.8
85041.5
91162.9
91574.5
91498.6
93183.9
95331.7
101158
117699
164938
114335
94824.2
92752.3
88988.9
86279.4
85575.4
85023.8
91212.9
91610.9
91616.1
93323.5
94926.7
102490
120817
165739
116115
99220.1
92701.9
88406.5
86180.7
85465.5
84929
91239.8
91637.9
91687.4
92444.1
95337
103984
126683
159634
122139
101572
92414.9
87799.9
85891
85275.5
84775
91205.5
91605
91678.8
92447.6
95394.4
104144
127665
144635
125806
102282
92068.3
87376.1
85575.2
85011.9
84539.2
91162.6
91583
91630.9
93393.6
95216.9
103561
125180
176710
134988
103488
92009.9
87284.7
85308.3
84795.2
84335.5
91100.8
91664.5
92946.8
93527.4
95982.7
103434
125478
183371
133308
103879
92104.7
87584.7
85924.6
84713.4
84153.3
91055.6
91651.9
93009.9
95914.7
97817
107059
123547
161661
130287
103572
92656.7
88467.4
85948.8
84626.5
84048.3
91018.1
91632
93033.1
95646
100415
105238
115381
130811
113569
101614
92675.1
88641.4
85953.6
84595.3
83990.1
90976.7
91663
92759.3
95800.6
100170
101528
109659
114729
107784
98015
92704.6
88822.3
85910.5
84581.5
83952.8
90946.1
91640
92623.7
95384.8
99537.7
99445.4
105663
110107
105116
96912.2
92211.8
88649.3
85849.4
84551.7
83929.1
94586.6
95272.9
96149.3
97790.4
100886
101198
102855
107759
103171
99547.5
96627.8
93880.8
91481.5
90207.3
89494.1
94696.1
95420
96440.7
98492.8
102005
102702
105213
107771
104672
100825
97446.3
94271
91702.7
90316.4
89577.8
94875.7
95567.8
97000.4
99235.6
102929
105049