/*--------------------------------*- C++ -*----------------------------------*\
| =========                 |                                                 |
| \\      /  F ield         | OpenFOAM: The Open Source CFD Toolbox           |
|  \\    /   O peration     | Version:  v2012                                 |
|   \\  /    A nd           | Website:  www.openfoam.com                      |
|    \\/     M anipulation  |                                                 |
\*---------------------------------------------------------------------------*/
FoamFile
{
    version     2.0;
    format      ascii;
    class       volScalarField;
    location    "0.042";
    object      p;
}
// * * * * * * * * * * * * * * * * * * * * * * * * * * * * * * * * * * * * * //

dimensions      [1 -1 -2 0 0 0 0];


internalField   nonuniform List<scalar> 
449343
(
103726
103862
104090
104313
104413
104173
103395
102007
100062
97770.8
95428.3
93309.9
91606.7
90427.9
89827.8
103708
103845
104074
104297
104396
104155
103377
101990
100046
97757
95416.1
93297.7
91593.6
90413.9
89813.2
103693
103830
104059
104282
104381
104138
103358
101972
100032
97747.8
95410.5
93292.3
91586.4
90404.8
89803
103679
103816
104047
104269
104366
104118
103337
101951
100016
97740
95409.3
93292.1
91583.7
90399.3
89795.8
103665
103804
104035
104257
104352
104096
103313
101927
99999.5
97732.8
95410.6
93294.7
91583.2
90395.1
89789.7
103650
103790
104022
104244
104336
104075
103289
101906
99984.9
97727.3
95411.9
93296.9
91581.6
90389.7
89782.1
103634
103774
104007
104228
104318
104055
103268
101885
99970.7
97720.4
95407.6
93294.3
91575.4
90380
89770.7
103614
103755
103987
104209
104298
104034
103242
101857
99943.9
97701.2
95392.3
93279.8
91559.7
90363.4
89753.5
103591
103731
103964
104186
104276
104013
103226
101843
99928.6
97678.2
95365.8
93252.9
91534.2
90339
89729.7
103566
103705
103937
104159
104252
103991
103205
101823
99902
97644.5
95329.6
93214.8
91499.8
90307.9
89700.3
103538
103677
103908
104131
104226
103971
103188
101804
99876.6
97610.2
95288.4
93172.8
91461.3
90273.2
89667.7
103510
103648
103879
104103
104200
103953
103173
101788
99854.7
97578.8
95248.4
93131.2
91422.6
90237.9
89634.3
103483
103621
103851
104075
104175
103933
103155
101770
99831.9
97548.5
95211.3
93092.9
91386.5
90204.4
89602.3
103459
103596
103825
104050
104150
103911
103135
101750
99807.8
97519.7
95178.9
93059.9
91355.1
90174.6
89573.5
103436
103573
103802
104027
104127
103890
103115
101729
99785.3
97495
95152.5
93033.4
91329.3
90149.7
89549
103573
103758
104087
104463
104742
104727
104084
102632
100432
97800.6
95160.3
92844.5
91032.6
89801.4
89181
103556
103741
104070
104448
104727
104709
104066
102614
100416
97789.1
95150.5
92833.8
91020.2
89787.7
89166.6
103540
103726
104057
104436
104715
104693
104047
102597
100405
97785.7
95150.8
92832
91014.6
89779.3
89156.8
103526
103713
104047
104426
104703
104672
104021
102569
100389
97783.7
95158.8
92837.7
91014.3
89774.6
89150
103513
103702
104038
104418
104692
104644
103991
102540
100356
97783.2
95172.8
92848.4
91017
89771.5
89144.3
103499
103690
104028
104411
104683
104625
103963
102516
100347
97784.5
95186.9
92859.6
91019.2
89767.1
89137.1
103483
103675
104016
104398
104664
104610
103943
102496
100335
97789.2
95206.7
92868.1
91016.2
89758.6
89126.1
103464
103656
103997
104381
104647
104589
103914
102419
100302
97767.5
95192.9
92855.3
91001.1
89742.5
89109
103440
103632
103973
104356
104622
104568
103900
102454
100293
97746
95163.9
92826.2
90974.7
89717.3
89084.8
103414
103605
103944
104326
104599
104541
103878
102431
100263
97700.4
95103.5
92776.7
90936.6
89684.7
89054.8
103386
103575
103911
104292
104567
104519
103866
102415
100232
97659.4
95049.7
92725.6
90894.3
89648.9
89021.6
103357
103545
103879
104259
104536
104507
103856
102405
100227
97622.1
94997.4
92676.3
90852.6
89612.5
88987.8
103330
103516
103848
104228
104508
104488
103844
102396
100206
97586.9
94952.1
92632.7
90814.5
89578.4
88955.5
103305
103490
103821
104199
104480
104465
103824
102375
100180
97553.2
94914.3
92596.6
90781.8
89548.2
88926.5
103283
103468
103797
104175
104457
104443
103804
102355
100157
97526.7
94886
92568.9
90755.5
89523.1
88902
103182
103476
104035
104776
105524
106076
105843
104226
101347
97822.3
94450.8
91687.6
89640.5
88298.8
87636.6
103165
103459
104020
104762
105512
106061
105824
104209
101334
97816.6
94446.2
91679.8
89629.4
88285.6
87622.6
103149
103445
104009
104756
105507
106052
105803
104196
101328
97829.2
94461.4
91685.5
89626.6
88278.4
87613.5
103135
103434
104003
104756
105509
106033
105759
104170
101291
97844.3
94496.9
91705.1
89631.1
88275.4
87607.6
103122
103425
104001
104759
105509
105992
105669
104069
101219
97883.2
94543
91732.9
89640.4
88274.1
87602.5
103109
103416
104001
104765
105522
105962
105624
104048
101218
97914.6
94602.1
91765.5
89649.1
88271.8
87595.8
103093
103403
103991
104765
105498
105956
105596
104023
101207
97929.9
94722
91797.7
89654.3
88264.2
87584.7
103074
103385
103975
104751
105490
105950
105601
104010
101176
97910.8
94708.4
91787.7
89642
88250.2
87568.1
103050
103360
103948
104722
105455
105912
105552
103978
101162
97885
94678.1
91754.8
89612.4
88222.6
87542.7
103022
103330
103915
104679
105436
105876
105537
103960
101129
97827
94515.7
91680.3
89564.8
88187.9
87512
102993
103296
103872
104631
105381
105864
105541
103940
101091
97756.4
94417.3
91608
89515.9
88149.8
87478
102964
103263
103833
104586
105340
105866
105593
104005
101127
97681.6
94334.6
91542.7
89468.1
88111.8
87443.6
102936
103233
103798
104546
105299
105846
105599
103996
101130
97632
94263.8
91486.5
89426
88076.4
87410.7
102911
103206
103768
104512
105263
105816
105583
103973
101101
97584.5
94213.1
91444.3
89391.2
88045.5
87381.4
102889
103183
103743
104485
105236
105792
105564
103952
101076
97553.4
94180.4
91414.2
89364.1
88020
87356.6
102423
102876
103781
105110
106724
108345
109280
107348
102971
97574.5
92966.6
89585.5
87263.6
85813.3
85118.8
102404
102859
103767
105099
106717
108337
109255
107333
102960
97577
92968.6
89579.8
87252.9
85800.4
85105.1
102387
102844
103759
105101
106728
108344
109239
107341
102991
97630.6
93004.8
89591.5
87251.4
85793.7
85096.4
102370
102833
103759
105121
106753
108370
109060
107344
102893
97750.9
93096.9
89624
87258
85791.2
85090.7
102355
102824
103765
105139
106790
108304
108280
107029
103692
97932.1
93217.2
89678.3
87269
85788.7
85084.9
102341
102819
103785
105208
106873
107513
108143
106992
103731
99182.4
93377.5
89742.8
87284.4
85784.7
85076.9
102323
102808
103786
105219
106201
107533
108096
106945
103697
99206.9
94665.2
89784.7
87282.9
85773.7
85063.3
102304
102793
103778
105211
106186
107537
108103
106830
103675
99205.6
94638.3
89776.8
87284.5
85765.8
85046.1
102279
102764
103742
105175
106157
107500
108055
106882
103650
99171.9
94616.2
89740.4
87239.9
85731
85019.8
102253
102731
103697
105120
106785
107435
108031
106877
103614
99118.8
93283.7
89653.3
87196.4
85697.5
84990
102224
102693
103634
105009
106659
108173
108131
106890
103590
97799.3
93085.9
89549.6
87141.4
85661.2
84956.9
102196
102659
103586
104949
106582
108199
108891
107177
102726
97585.7
92932.7
89459.6
87092.5
85624.4
84923.3
102170
102628
103544
104888
106516
108135
109035
107142
102796
97437.3
92809.9
89393.2
87049.8
85589.4
84890.7
102146
102601
103511
104845
106465
108089
109016
107102
102735
97354
92741.9
89347.1
87015
85558.7
84861.4
102125
102579
103485
104815
106433
108059
109002
107080
102712
97316.7
92704.2
89315.9
86988
85533.4
84836.7
101093
101721
103027
105101
107999
111628
115503
112812
105418
96298.9
90000
86132.4
83703.5
82275.2
81620.3
101071
101701
103010
105092
107998
111632
115481
112802
105426
96319.5
90006.7
86124.6
83691
82261.8
81606.7
101048
101682
103000
105098
108033
111681
115487
112816
105501
96398.8
90051.6
86130.2
83684.9
82253.5
81597.9
101025
101665
103002
105159
108200
111846
113166
112907
107131
96900.9
90252.9
86170.8
83685.7
82249.7
81591.4
101000
101647
103011
105206
108267
110328
113121
112832
107219
99213.9
90452.2
86210
83682.3
82235
81581.3
100979
101644
103059
105407
107394
110503
113133
112701
107176
99470
92687.8
86324.5
83668.5
82231.8
81569.7
100951
101617
103040
104793
107448
110594
112187
112012
107522
100487
92894.5
88163.5
83595.2
82190.5
81544.3
100933
101607
103089
104786
107477
110613
112191
111975
107533
100519
92960.6
88216.2
83702.2
82176.3
81531.4
100907
101572
102996
104748
107439
110578
112145
111953
107475
100481
92909.5
88175.4
83549.1
82145
81498.4
100888
101553
102969
105317
107309
110435
112171
111930
107420
99441.5
92689.2
86229.4
83575.4
82137.2
81477.1
100864
101512
102876
105072
108134
110248
112963
112563
106983
99203
90309.2
86074.6
83549.6
82104.2
81447.2
100845
101486
102824
104982
108024
111671
112966
112721
107056
96729.2
90084.7
86002.8
83515.1
82076.4
81418.1
100826
101460
102779
104879
107816
111468
115283
112650
105317
96217.5
89862.4
85932.9
83481.2
82045
81386.9
100807
101437
102748
104831
107741
111380
115242
112586
105220
96117.6
89791.6
85896.1
83452.7
82016.8
81358.4
100788
101417
102724
104800
107702
111337
115227
112556
105179
96064.9
89751.1
85868.4
83428.7
81992.7
81334.1
98939
99694.4
101325
104115
108543
115488
121127
126520
112840
91673.4
84352.6
80784.1
78710.4
77617.6
77154.9
98911.6
99668.2
101302
104101
108548
115496
121116
126501
112815
91667.8
84342.4
80762.9
78693.6
77603.8
77142.1
98876.7
99635.2
101275
104081
108556
115549
121114
126492
112794
91658.4
84318.3
80724.2
78670.7
77592.1
77134
98838
99605.3
101266
104136
108958
113377
121201
126594
112805
96195.8
84446.3
80641.7
78654.1
77584.9
77127.5
98788.8
99553.8
101223
104198
107712
113654
121512
124184
114234
96964.8
87745.6
80563.2
78551.7
77548.7
77112.4
98752.2
99513.2
101269
103766
107816
112702
119729
123106
114260
99313.3
87956.9
82989
78458.5
77497.8
77090.2
98705
99456.9
101241
103795
107951
112735
118806
123091
114771
100322
89716.1
83064.1
78365.6
77434.4
77053.9
98671.9
99409.6
101223
103837
107280
112209
118814
123054
114738
100375
89727
83079.4
80280.7
77377.4
77033.6
98658.7
99410
101194
103785
107250
112667
118785
123013
114680
100326
89684.7
83005.8
78311.2
77383
77003
98657.4
99419.1
101176
103663
107845
112668
118705
122991
114634
100191
89634.9
82963.8
78361.4
77397.9
76990
98648.4
99413.7
101084
104060
107585
113583
119496
123930
114049
98964.3
87748
80419
78408.9
77405.1
76967.9
98651.8
99419.6
101082
103953
108776
113245
121068
126429
112645
96207.9
84272.6
80466.3
78472.9
77402
76943.2
98646.3
99405.3
101046
103854
108332
115329
120910
126294
112644
91508.7
84141.3
80528.7
78464
77375.7
76913.3
98638.5
99395.7
101031
103832
108282
115238
120865
126284
112653
91513.7
84145
80540.5
78453
77352.1
76885.2
98624.8
99380.7
101012
103804
108236
115189
120847
126273
112646
91491.4
84124.4
80527.9
78435.2
77329.5
76860.7
95735.9
96470.9
98108.6
101081
106132
113044
129641
159551
116909
84022.2
74027.1
72799.5
72118.6
71916.4
71868.8
95700.2
96434.9
98072.5
101045
106105
113021
129606
159513
116715
83920.2
73962
72750.5
72097.6
71904.9
71860
95646
96374.4
98002.8
100954
105978
112983
129515
159453
116624
83873.2
73856
72682.8
72070.4
71895.7
71858.8
95579.1
96303.8
97928.1
100725
105338
113347
129512
159321
116430
84000
77228
72386.8
72020.2
71882.5
71860.4
95488
96187.8
97719.2
100775
105355
112445
126548
159200
117582
88021
77002.3
74597.9
71818.4
71840.8
71850
95398.9
96025.8
98167.6
100820
105081
112419
125133
154190
122427
90134.2
79325.6
74541.2
73523.3
71767.1
71832
95336.4
95957.6
98140.5
100798
105095
111976
125041
154117
122490
90315.6
80710.5
76119.8
73503.3
71764.2
71817.8
95281.4
95903.6
98175.2
100800
105076
111937
124997
154104
122610
90472
80808
76156
73521.3
71764
71782.2
95288.4
95910.1
98105.4
100793
105073
111916
124973
154044
122335
90333.3
80762.2
76121.6
73446.1
71704.2
71759.9
95299.7
95927
98084.3
100706
105039
111907
124978
154019
122119
90042.6
80573.8
76023.6
73422.1
71653.3
71717.6
95340.6
96041.3
97574.2
100637
105225
112339
125040
154068
122031
89810.5
79226.5
74415.1
71658
71679.4
71688.1
95384.4
96109.9
97734.1
100534
105048
113095
126395
159067
116413
87993.9
76967.9
72196.7
71825.5
71683.2
71658.6
95404.8
96133.3
97763.5
100716
105742
112752
129298
159179
116505
83815.9
73703.9
72485.3
71851.2
71664.1
71621.9
95415.3
96150.6
97788.7
100762
105823
112756
129311
159250
116642
83860
73785.5
72531.3
71849.2
71640.4
71588.3
95409.1
96144.3
97782.6
100756
105806
112719
129317
159263
116730
83885.1
73822
72547.1
71836
71616.2
71560.7
91416.2
91874.6
92890.4
94740.6
97759.9
104551
112099
109881
26677.9
53937.2
59250.4
62387.6
64375.7
65628.3
66200.4
91372.4
91828.2
92839.8
94679.8
97707.9
104496
112054
109790
23876.9
53691.2
59131.8
62346.6
64370.6
65628.7
66202.6
91300.2
91743.9
92744.5
94587.8
97568.3
104378
111947
109700
23494.3
53620
59072.8
62366
64393.6
65650.9
66226.7
91204
91619.2
92597.2
94281.1
98820
103954
111683
109566
23431
53811
60517.3
62519.6
64452.9
65690.2
66269.9
91075.5
91456.6
92346.7
95388.7
98553.6
104337
112420
109375
25690.5
57363.7
62156.3
63893.1
64614
65766
66319.7
90931.6
91290.7
93457.7
95251.2
98996.4
104550
112231
109100
26653
58015.6
63348.4
64194.3
65774.6
65893
66370.4
90861.4
91211.9
93410
95154.1
99221.7
104484
112139
109003
25912.2
58733.4
63932.9
65314.5
65848.8
65973.5
66413.4
90814.7
91153.1
93351.9
95758.3
99202.1
104448
112101
108933
27850.7
59762.7
64440.1
65974.8
65950.2
66005.6
66398.4
90809.9
91160.7
93327.5
95726.7
99180.6
104429
112088
108962
25034.7
59668.1
64425.9
65943.2
65855.5
65903.4
66343.8
90825.9
91186.1
93346.8
95091.6
99150.9
104426
112099
109023
24264
58548.5
63845.7
65186.5
65688.5
65759.5
66235.5
90918.8
91300.9
92191.7
95176.2
98898.2
104449
112155
109102
23905.3
57590.5
63126.2
63828.4
64423.1
65575.6
66130.8
90997.3
91413.4
92393.1
94079.6
98534.5
103467
111231
109332
23870.8
55469.3
60269.8
62310.8
64232.5
65463.7
66041.1
91045.1
91489.5
92491.5
94336.9
97317.7
103925
111548
109353
23923.5
53598.2
58915.2
62158.3
64152.9
65394.5
65964.4
91071.9
91528.1
92539.9
94379
97404.9
104164
111691
109397
24239.2
53733
58986.1
62119.3
64103.4
65341.7
65907.3
91073
91531.5
92546.9
94395.3
97410.5
104196
111724
109413
24342.9
53827
59054.6
62125.8
64075.3
65306.5
65869.4
86244.2
86183.3
86038.3
85817.7
85884.6
90042.5
93907.3
107230
4018.84
32775.7
45636
52558.9
57108.3
59770.1
60965.1
86196.9
86133
85985.4
85759.1
85841.1
89978.3
93848.8
107016
2363.2
32719.3
45565.1
52578.4
57135
59791.1
60984.7
86121.5
86049.4
85896.7
85707.3
85768
89849.1
93725.7
106911
2344
32748.5
45676.3
52705.5
57232.6
59869
61049.6
86024.8
85925.7
85776.1
85734
88503.6
89761.8
93490.9
106772
2316.16
33005.8
45949
53141.1
57437.3
60010.1
61162.7
85907
85786.7
85691.9
87689.1
88503.5
91581.5
94546.8
106770
2302.2
32865.6
46774.4
54034.2
57779.3
60235.3
61314.6
85782.7
85730.7
87251.5
87588
89725.2
92373.7
94446.3
106408
2246.93
33557.6
47578.9
54398.3
58592.2
60461.2
61471.5
85724.6
85682.2
87141.3
87540.9
90359
92319.4
94425.5
106401
2480.6
35180
48565.4
55137.6
58784.7
60580.5
61553.9
85681.3
85631.8
87064.5
88507
90317.2
92306.4
94442.6
106405
30555.9
39354.5
49685.7
55673.7
58861.2
60612.1
61546.6
85668.8
85627
87036.1
88473.7
90296.7
92287.7
94427.8
106433
40732.9
40417.2
49727.4
55623.5
58765.5
60486.7
61464.4
85668
85617.5
87051
87484.9
90280.9
92262.5
94378.9
106391
11357.2
36252.5
48570.8
54948.1
58548.6
60292.8
61305.2
85737.8
85619.4
85526.9
87463.3
89642
92287.4
94358
106354
2336.11
33678.9
47420.1
53964.9
57536.6
59998.9
61083.8
85802.4
85704.6
85557.7
85521.9
88339.3
89713.8
93480.7
106645
2406.39
32872.2
46082
52871.5
57166.1
59740.5
60894.6
85848.2
85777.3
85626.6
85439.7
85503.2
89549.8
93349.9
106537
2308.04
32708.4
45457.5
52457.5
56949.9
59573.5
60750.6
85876.5
85812.9
85666
85439.2
85518
89609.8
93455.8
106606
2327.9
32658.9
45362.9
52309
56830
59468.7
60655
85880.1
85819.3
85674
85450.7
85510.6
89653.4
93497.3
106636
6784.32
32568.3
45373.7
52258.4
56772
59414.2
60600.9
80914
80272.9
78939.7
76815.5
76536
75581.3
78241.8
4308.19
25083.4
38416.7
46560.5
52219.3
55606.4
57181.7
80866.4
80222.7
78888.2
76763.5
76474.1
75504.8
78159.5
2295.48
24863.8
38421.2
46639.5
52268.9
55644.3
57214.5
80797.2
80153.1
78807.8
76685.3
76435.1
75421.1
78007.9
2299.54
24758.1
38673.4
46781.6
52401.1
55759.8
57306.2
80722.6
80074.4
78719
76792.1
76682
75298.2
77788.8
2298.23
25037.5
37809.1
47318.9
52670.1
55958.3
57461.6
80652.4
80004.4
78800.2
78790.6
77217.4
77377.6
78469.6
2291.44
22884.4
37640.3
47216.8
53090
56253.9
57667.9
80585.2
80066.7
80240
79034.4
78587
78389.1
78494.8
2267.75
23357.9
38007.4
47697.9
53180.7
56465.6
57878.2
80546
80048.1
80155.9
79113.2
79406.7
78524.9
78674.7
2300.76
25857.1
39286.4
47969.3
53479
56566.4
57955
80503.1
80011.6
80108.9
79983.8
79520.1
78647.8
78914.1
48765.4
31455.2
40602.5
48255
53546.7
56574
57937.2
80483.8
79987.2
80073.4
79966.5
79497.3
78628.8
78903.6
2267.44
28910.2
40249.3
48115.4
53412.1
56431.6
57834.8
80458.3
79941.4
80079.4
79020.5
79332.1
78459.3
78623.2
2305.99
25146.4
38827.4
47585.3
53126.3
56227.3
57654.3
80466
79820.5
78621.3
78616.2
78414.1
78267.4
78393.5
2311.4
23359
37664.9
47096.9
52733.3
55946.7
57383
80479.3
79832.8
78481.6
76565.9
76536.7
75246.9
77376.1
2290.09
23431.2
37729.4
46911.2
52312.2
55622.7
57142.6
80500.1
79857.9
78516.7
76401.7
76164.9
75109.9
77634.9
2291.83
24526.7
38335
46460.2
52050.5
55408.7
56960.5
80520.5
79877.7
78545.5
76423.9
76164.9
75137.3
77724.8
2295.7
24629.5
38132.8
46291.1
51904
55273.5
56840.7
80523.4
79882.8
78550.6
76425.4
76122.2
75144
77759
2301.38
24624.7
38085.7
46199.5
51829.5
55205.3
56775.3
76338.1
75156.7
72679.6
68346.6
66121.7
58737.7
54697.5
3373.64
2289.96
23806.6
36212
44670.1
50443.7
53924.1
55591.5
76284.1
75097.6
72610.4
68260.8
66028.6
58600.4
54514.3
2697.94
2296.5
23606.7
36276.4
44744.9
50486
53965.8
55626.5
76204.6
75015.7
72500.5
68097.7
65894.4
58384.4
54224.4
2701.09
2295.93
20448
36661.6
44947.1
50640.8
54086.5
55721.3
76122.6
74937.7
72343.1
67968.6
65748.7
58146.1
54062.9
2283.93
2299.67
21115.1
34404.1
45342.2
50879.6
54286.4
55873.6
76059.8
74860
72231.3
70873.9
65500.3
60992.1
55920.9
2275.45
2298.37
19160.2
33641.4
44153.5
51274.4
54572.1
56065.3
76005.2
74823.4
74109.1
70719.4
67441.1
62384.7
56119.9
2280.9
2288.57
19554.3
33747.5
44675.3
50581.8
54774.2
56256.6
75952.6
74769.7
74054.1
70609
68345.3
62635.7
56647.2
2851.24
2264.63
21806.7
34948.1
44412.1
50850.7
54853
56318.3
75900.8
74728.9
73998.9
71941.6
68424.2
63016.2
57899.5
10743.1
11992.9
25989.4
35899.5
44324.4
50898.2
54829.2
56288.4
75880.7
74699.1
73970.9
71928.1
68398.6
63017.2
58024.3
17860
2419.22
22917.1
35259.1
44055
50706
54667.4
56165.9
75861
74681.3
73980.8
70535.2
68283.1
62571.9
56607.6
2330.27
2286.12
20286.4
33948
43739.6
50363.2
54448.7
55979.4
75849.4
74651.4
72025.8
70662.5
67313.3
62257
56023.5
2624.33
2283.99
19218.7
32960.5
43765.1
50758.5
54177.4
55713.5
75850.9
74667.4
72078.4
67719.6
65436.8
57947.9
53922.6
2910.5
2289.48
19505.2
34030.2
44778.4
50418.9
53870.2
55488.1
75876.6
74690.1
72181
67793.5
65522.2
58035
53908.4
2503.32
2296.21
20282.1
36192.6
44486
50199.9
53674.2
55317.3
75905.5
74720.5
72237.8
67897.6
65648.6
58164.7
53971.8
2288.87
2295.32
23503.9
35959.7
44351.6
50068
53544.6
55204.1
75913.9
74733.4
72259.1
67929.7
65686.4
58238.4
54014.2
2287.8
2297.69
23687.9
35927.4
44275.6
50005.2
53478.8
55141.2
73351.4
71748.4
68347.2
62326.4
51917
42438.5
18027.9
2328
2302.12
25707.8
37872.3
46086.8
51547.3
54817.8
56376.3
73279.8
71667.3
68237.1
62180.7
51716.4
42196.2
17906.6
2257.7
2302.21
25526.6
37983.5
46132.4
51573.4
54845.7
56398.9
73167.4
71545.3
68074.8
61980.2
51432
41657
17679.3
2255.85
2301.6
21205
38165.5
46321.8
51705.1
54938
56470
73035.7
71420.1
67851.6
61735.2
55786.8
41174.4
17623.3
2272.56
2300.98
21486
34759.9
46617.4
51898.7
55085.8
56584.5
72919.7
71295.7
67695.8
64253.3
55636.1
44925.2
23974.4
2274.18
2294.79
19056.4
33801.3
44623.5
52231.8
55319.2
56732.6
72823
71170.6
69324.9
64130.5
57823.6
46847.8
24874.7
2273.37
2267.89
19830.1
34013.6
45246
50850.6
55503.6
56882.5
72728.3
71057.3
69285.2
64006.6
58837.5
47185.5
25524.7
2288.95
2286.79
21612.7
35361.1
44646.6
51093
55558.7
56917.3
72658.8
70991
69220.6
65386.2
58857.1
47748.6
27699.6
5892.24
2327.69
22459.8
35829.6
44202.2
51088.8
55504.5
56872.9
72642.1
70968.3
69189.9
65356.8
58820.7
47793.5
28970.4
14338.6
2291.63
21352.6
34807.4
43692
50822.8
55322.8
56735.4
72653.2
70998.7
69205.8
63915.2
58729.4
47062
25313.7
2288.69
2262.85
19568.9
33320.8
43417.1
50414.4
55099.7
56557.8
72675.6
71050.3
67445
64076.3
57651.4
46681.9
24758
2304.43
2289.31
18539.6
32268.4
43819
51569.6
54842.7
56327.8
72725.7
71109.4
67543.4
61439.6
55497.6
41045.4
19137.5
2275.07
2272.35
19100.8
34133.2
45881.8
51310.7
54594.9
56146.7
72798.8
71178
67713.9
61638.2
51147.9
41280.3
17585.2
2278.25
2304.72
20848.2
37573.7
45753.3
51184.7
54471.2
56019.3
72859.2
71247.9
67823.6
61783.5
51359
41705.3
17560
2263.82
2301.41
25398.6
37601.7
45674.7
51101.6
54377
55934.3
72884.5
71282.4
67885.9
61878.6
51498.7
41998.3
17671.8
2272.52
2301.5
25783.4
37633.7
45661.3
51070.2
54330.3
55886.3
72612.4
70940.3
67361.4
61230.6
50315.1
39298.1
4968.43
2307.03
2321.58
31820.6
43038.8
50520
55223.7
57971
59265.4
72516.8
70830.4
67203.3
60970
50085.1
38611.8
4407.96
2239.91
3630.96
32331.8
43205.5
50519.6
55224.5
57968.8
59264.1
72364.3
70659.4
66971.5
60612.7
50315.4
36938.4
6831.43
2269.02
2304.92
25106.3
43436.4
50668.4
55285.7
58013.8
59295.5
72177.9
70472
66710.9
60316.1
52329.3
35836
8156.09
2287.69
2307.12
25377.2
39005.3
50891.4
55390.2
58089.1
59354.1
72003.4
70297.6
66548.6
61669.2
51849.2
38303.2
17035.4
2277.97
2295.15
22511.7
37920.8
48317.2
55678
58256.8
59445.7
71853.6
70138.6
67331.4
61377.6
53196.3
39444.6
17320.5
2303.08
2280.26
26023.5
39024.7
49102.6
53793.7
58405.6
59547.3
71713.2
69971.5
67203.8
61152.5
53750.7
39567.8
19502.4
2321.86
2294.58
35038.6
42278.8
48498.4
53993.9
58431.2
59551.8
71624.6
69872.3
67107.4
62073.2
53584
39642.6
20154.1
2344.93
2289.54
37571.3
42836.9
47886.1
53924.2
58353
59494.1
71607.7
69857.5
67080.8
62025.7
53518.9
39524.8
18774.7
2293.76
2297.61
28191.2
39694
46924.4
53595.7
58174.3
59357.8
71650
69925.5
67107.4
61075.3
53579.1
39280.5
18181
3569.13
2300.56
22938.7
36770.5
46455.6
53169.8
57975.3
59206.9
71715.5
70001.7
66233
61328.7
52983.3
39216.4
17092.3
2300.33
2293.12
21035.6
35280.6
47139.3
54943.7
57748.4
59021.2
71818.6
70106.7
66337.3
59946.2
51764.3
35963.8
16596.1
2287.31
2294.74
21794.4
37972.9
50045.4
54745.4
57573.7
58897.3
71944
70236.4
66547.2
60203.1
49953.1
36113.4
7632.32
2298.47
2310.45
24411.5
42702.9
50017.1
54718.3
57513.9
58822.3
72043.3
70354.9
66728.7
60521
49645.9
38456.5
4689.82
2263.61
3223.92
31863.7
42734.7
49993.4
54708.7
57472.5
58776.9
72092.4
70419.1
66842.2
60747.3
49840.7
39248.9
4586.39
2261.89
3944.08
31985.1
42850.7
50059.3
54722.5
57455.7
58751.6
74372.6
73106.3
70411.3
66153
56793.3
47462.4
6591.59
2318.34
28028
48082.6
52957.8
58190.4
61214.8
62984.8
63839.7
74253.3
72962.3
70196.8
65719.8
56151.3
46302.6
2328.6
2322.48
29134.1
48151.5
52928.3
58093
61163.5
62948
63810.7
74062.7
72738.9
69893.1
65055.6
57710.9
43184
12208.5
2586.37
10980.6
37067.4
53142.1
58003.9
61097.3
62926.7
63789.1
73826.6
72464
69482
64496.2
56537.3
41408.5
13566.8
2296.09
2319.79
35250.1
47576.4
57973.7
61018.3
62901.1
63775.4
73596.3
72199.3
69168.8
64128.2
55303.4
41289.9
18754.3
2307.02
2304.46
30048.6
45627.1
54740.2
61174.8
62964.8
63794.2
73390.6
71984.5
68889.1
63417.4
55021.2
40915.8
18114.6
2293.4
2307.17
37310.6
46800.7
55181.5
58815
63052
63839.5
73202.6
71753.7
68548
62923.4
54662.6
39999.9
17654.9
2344.7
105451
67534.3
51110.6
54277.2
58870
63034.7
63809.7
73092.7
71620.9
68361.4
63052.2
54110.5
39025.7
15292.4
2289.48
113894
73913.5
51483.4
53573
58771.9
62959
63749.8
73075
71610.9
68340.1
62991.2
54013.7
38927.4
15223.1
2313.32
2322.47
39958.2
47015.5
52586.2
58519.2
62829.1
63641.7
73148.5
71721.8
68447.8
62868.3
54405.2
39715.7
17383.7
2286.72
5216.16
30191.5
43637.6
52350.2
58232
62698.4
63542.7
73258.4
71842.6
68768.4
63377.4
54781.5
40645.2
17942.2
2296.16
2304.65
27639.7
42291.1
53619.3
60564.5
62517.8
63408
73410.8
72032.6
69021.6
64007.3
55432.9
40692.8
17858
2300.34
2309.39
29388.2
46273.1
57196.4
60437.8
62427.6
63349.2
73582.6
72247.1
69379.7
64523.7
57172.3
41988.9
12723.2
2308.78
9889.51
34918
52334.6
57337.2
60540
62434.7
63327.3
73717.9
72416.6
69633.2
65158.1
55578
45923.3
2330.06
2322.91
28370.4
47465.2
52354.8
57500.3
60629.5
62446.5
63323.3
73790
72515.4
69805.9
65563.7
56249.6
47243.2
7511.47
2322.01
29471.4
47960
52655.7
57661.4
60694.8
62461.6
63322
78178.7
77680.4
76678.3
76385
74404.1
81989.4
117768
97278.7
83213.5
72760.7
67861.4
68673
68886.9
69277.9
69538.4
78042.8
77500.9
76409.1
75752.4
73236
80044.3
110145
85947.9
80000.8
71530.7
67393.7
68384.1
68753.9
69198.7
69479.1
77823.2
77218.5
76019.4
74229.3
72702.3
64783.1
60312
39005.2
46609.3
59228.5
66652.4
67705.7
68509.9
69088.4
69396.3
77547.9
76866.9
75433.4
73350.3
67423.6
59251.2
39142.7
12093.9
22353.2
55395.6
61119
67161.3
68203.2
68946.7
69302.1
77273.2
76515.7
74958.8
70880.5
65719.1
55049.6
31558.8
2285.72
10753.4
45106.1
57352.4
63584.3
68054.8
68867.9
69228.9
77027.9
76234.5
73410.8
69911.5
63506
52098.9
28891.8
2272.91
13949.3
43019
55075.6
63082
65443.7
68810.7
69205.9
76804.2
75958.8
72919
69236.7
62016
49612.1
26575.6
2243.98
2318.97
34275.8
54147
60990.2
65270.3
68742.5
69140.2
76676.8
75803.4
72675.9
68406.5
61009.8
47243.9
18364.4
2268.63
2292.61
31371.3
53716
60018.6
65230.5
68695.2
69094.7
76654.5
75788.3
72642.2
68324.1
60830.3
46840.8
19353
2299.75
5369.86
41546.9
53981
59915.5
65211.5
68644
69037
76747.6
75923.1
72813.4
69146.4
61583.1
48840.1
24402.9
2295.84
13136.2
41805.1
53970.6
60850.4
65201.5
68616.8
69010.8
76885.8
76094.6
74457.7
69790.3
63201.1
51639.8
28684.1
2287.89
10820.2
42112.9
54266.7
62989.1
67744.9
68570.9
68941.7
77076.3
76367
74874.4
72708.1
65773.3
57182.1
32380.4
2270.66
10439.9
47112.7
59839.2
66681.8
67786.3
68571.8
68942.6
77283.1
76653.7
75402.3
73535.6
71923.4
60740.5
45981.3
27307.9
39010.9
56217.3
65965.8
67137.3
68023.9
68646.2
68975.2
77444.3
76879.2
75735.7
75020.8
72388.6
79213.6
108977
86429.4
79191.5
70802.9
66731.8
67770.3
68232.4
68712.1
69011
77531.2
77010.9
75957.4
75593.9
73474.3
81310.1
114976
103730
84084.4
72351.3
67366
68075.1
68352.7
68756.1
69030.3
82950.5
83249.9
83761.3
86607.9
90594.8
95695.5
121931
122115
107346
90037.5
81892.5
78940
76704.3
75886.7
75574
82827.5
83081.2
83572.2
86246.2
90069.1
96459.9
126642
129770
108409
89709.3
81549.7
78649.3
76556
75785.8
75497.6
82618.7
82770.8
83283
84630.9
88710.8
91678.8
116676
146179
113569
87787
80435.3
77753.1
76248.8
75610.4
75371.8
82349.2
82418.2
82675.9
83621.4
82827.3
88334.6
108504
149969
108973
84744.3
77489.8
76757.9
75802.9
75383.5
75214.1
82072.5
82053.2
82095.1
80302.8
80742.4
80070.5
81231
86021.5
82365.4
75096
73556.3
73965
75384.9
75178.7
75064.1
81829.9
81676
79943
79308.7
77186
74544.4
69718.5
29410.6
56404.5
65081.6
68890
72882.7
73162
74963.5
74959.5
81605.5
81394.5
79479.7
78581.5
74733
70779.4
56922.3
2275.67
2256.81
46506.7
64827.9
70408.5
72895.3
74846.2
74866
81475.1
81241.5
79230.6
76948.5
73670.9
67815.1
49009
2051.49
2287.42
45046.3
64094.8
69230.3
72854.9
74822.2
74837.1
81440.2
81207.4
79175.5
76843.8
73416
67000.7
42397.8
3556.33
25634.5
58417.1
66955.1
69900.6
73000.8
74835.9
74825.2
81522.8
81334
79320.9
78385.4
74119.4
69604.4
54282.9
2426.07
34550.6
65507.4
69577.5
71670.9
73245
74910.6
74864.6
81649.6
81586.3
81524
79078.4
76621.5
73630.6
69354.5
45196.8
63312.7
71017.5
71456.3
73779.2
75314
75022.2
74874.8
81837.1
81867.2
82040.4
82852.7
80916.7
84504.7
89165.1
122686
86365.2
78614.1
76445.2
76536.5
75547.8
75111.1
74933.8
82033.6
82148.2
82576.9
83776.6
87607.8
89627.7
113775
148650
111236
85948.4
79830.9
77290.8
75849.2
75232.6
75004.2
82180.3
82396.9
82800.9
85337.5
88843.5
94964
123752
124400
106103
88587.9
80776.8
78052.6
76064.4
75329.4
75061
82251
82509.5
82925.7
85580.7
89015.3
94037
116452
112045
104574
88774.8
81136.8
78288.4
76166.6
75377.3
75086.1
87389.2
88078.8
89051.5
91758
96110.6
95679.8
101750
106825
102480
94135.4
89346.5
85840
82981.3
81701.7
81073.2
87331.6
88008.2
89083
92044.8
96612.5
97434.2
105564
110930
104171
94839.1
89631
85829.6
82943.5
81637.4
81015.8
87219.4
87810.6
89169.3
91696.1
96355.5
99485.1
106781
120314
106904
97248.2
89403.1
85459.6
82815.3
81498.4
80910.7
87041.1
87593.5
88866.5
91615.6
93388.8
101541
115421
134589
117050
98255.9
89104.7
84885.9
82503
81290.1
80760.2
86822.3
87305.3
88426
88988.4
92808.9
99221.4
116211
157630
125312
98748.6
87690.2
83363.3
82049
81046.2
80588
86605.9
86912.8
86684.4
88187.8
90251
96495.5
115975
166726
123916
94606.4
85163.2
82452.6
80671
80754.7
80443.7
86421
86679.3
86403
87623.3
88616.8
94893.7
113542
187554
117051
85772.3
82352.7
81045.6
80453
80619
80343.8
86309.9
86549.9
86189.1
86379.3
87865.5
93508.2
111267
195544
101187
81755.3
81802.3
80530
80385.8
80596.8
80324.1
86257
86499.2
86118.3
86235.9
87623.2
93044.4
110895
180901
128457
92607.3
84278.8
81199.7
80555.4
80641.9
80331.9
86298.9
86578.2
86170.2
87303.8
87990.7
93808.3
111903
181076
131075
97403.3
86373.7
82298.8
80848.3
80753.2
80393.4
86392.3
86831.6
87834.8
87975
89555.4
95168.7
113192
161095
127374
98669.3
87447.8
83418.3
82076.5
80955.1
80454.8
86518.5
87028.1
88203.5
90772.3
92139.5
100209
114198
149610
122726
98665.7
88579.2
84732.8
82316
81072.2
80528.8
86621.6
87169.9
88433.9
90792.9
95173.1
99205.9
108200
122161
107406
96940.9
88829.6
85045.6
82461
81163.9
80583.9
86671.2
87306.6
88287
91116.7
95337.7
95905.1
103790
106875
102525
93628.8
88847.1
85264.1
82478.5
81212.8
80611.2
86674.6
87316
88184.3
90756.6
94465
94043.3
99704
103666
101411
92688.9
88497.8
85178
82453.2
81214.9
80611.6
90742.3
91394
92155.8
93457.2
96454.8
95927.1
96855.7
101775
97355.9
94028.8
91954.2
89433.5
87234.3
86128.9
85481.5
90767
91439.6
92323
93998.9
97224
96999.9
98970
101481
98573
95000.9
92488.6
89637.4
87321.3
86132.4
85471.5
90801.6
91428.8