/*--------------------------------*- C++ -*----------------------------------*\
| =========                 |                                                 |
| \\      /  F ield         | OpenFOAM: The Open Source CFD Toolbox           |
|  \\    /   O peration     | Version:  v2012                                 |
|   \\  /    A nd           | Website:  www.openfoam.com                      |
|    \\/     M anipulation  |                                                 |
\*---------------------------------------------------------------------------*/
FoamFile
{
    version     2.0;
    format      ascii;
    class       volScalarField;
    location    "0.042";
    object      p_rgh;
}
// * * * * * * * * * * * * * * * * * * * * * * * * * * * * * * * * * * * * * //

dimensions      [1 -1 -2 0 0 0 0];


internalField   nonuniform List<scalar> 
449343
(
103588
103725
103953
104176
104275
104036
103258
101870
99924.6
97633.4
95291
93172.5
91469.3
90290.6
89690.4
103591
103727
103956
104179
104278
104037
103259
101872
99928.1
97639.3
95298.4
93180
91475.9
90296.2
89695.5
103595
103732
103961
104184
104283
104039
103260
101874
99933.7
97649.7
95312.4
93194.2
91488.3
90306.7
89704.9
103600
103738
103968
104191
104288
104039
103258
101872
99938
97661.5
95330.8
93213.7
91505.3
90320.8
89717.4
103606
103745
103976
104198
104293
104037
103254
101868
99940.6
97673.9
95351.7
93235.9
91524.3
90336.2
89730.8
103611
103751
103983
104204
104297
104036
103250
101866
99945.7
97688
95372.7
93257.6
91542.4
90350.5
89742.9
103614
103754
103987
104208
104298
104035
103248
101866
99951
97700.8
95388
93274.7
91555.8
90360.4
89751.1
103614
103755
103987
104209
104298
104034
103242
101857
99943.9
97701.2
95392.3
93279.8
91559.7
90363.4
89753.5
103611
103751
103984
104206
104296
104032
103246
101863
99948.2
97697.8
95385.4
93272.5
91553.8
90358.6
89749.3
103605
103744
103977
104199
104291
104031
103245
101862
99941.3
97683.8
95368.8
93254.1
91539
90347.2
89739.6
103597
103736
103967
104190
104285
104030
103247
101863
99935.5
97669.1
95347.3
93231.6
91520.2
90332
89726.5
103589
103727
103958
104181
104279
104031
103252
101866
99933.2
97657.3
95326.9
93209.7
91501.1
90316.3
89712.7
103582
103719
103949
104173
104273
104031
103253
101868
99930
97646.6
95309.4
93191
91484.6
90302.5
89700.4
103576
103713
103943
104167
104268
104029
103253
101868
99925.5
97637.5
95296.6
93177.6
91472.8
90292.4
89691.2
103574
103710
103940
104164
104265
104028
103252
101866
99922.6
97632.3
95289.9
93170.7
91466.6
90287
89686.4
103436
103620
103949
104326
104605
104589
103947
102495
100295
97663.3
95022.9
92707.1
90895.2
89664.1
89043.7
103438
103623
103953
104330
104609
104591
103948
102496
100299
97671.4
95032.7
92716.1
90902.5
89670
89048.9
103442
103628
103959
104338
104617
104595
103949
102499
100307
97687.6
95052.7
92733.9
90916.5
89681.2
89058.7
103448
103635
103968
104348
104624
104594
103942
102490
100311
97705.2
95080.3
92759.2
90935.8
89696.1
89071.6
103454
103643
103979
104359
104634
104586
103932
102481
100297
97724.3
95114
92789.5
90958.1
89712.7
89085.5
103460
103650
103989
104372
104644
104586
103924
102477
100308
97745.2
95147.7
92820.3
90979.9
89727.9
89097.9
103463
103655
103996
104379
104644
104590
103923
102477
100316
97769.5
95187
92848.5
90996.5
89739
89106.5
103464
103656
103997
104381
104647
104589
103914
102419
100302
97767.5
95192.9
92855.3
91001.1
89742.5
89109
103460
103652
103993
104376
104641
104587
103920
102474
100312
97765.6
95183.5
92845.8
90994.3
89737
89104.4
103453
103644
103983
104365
104638
104580
103918
102471
100302
97739.6
95142.8
92815.9
90975.9
89724
89094
103445
103633
103970
104350
104625
104578
103925
102474
100290
97718.3
95108.5
92784.4
90953.2
89707.7
89080.5
103436
103623
103957
104337
104615
104586
103935
102484
100306
97700.6
95075.9
92754.8
90931.1
89691
89066.3
103428
103614
103946
104326
104606
104586
103942
102494
100304
97685
95050.2
92730.8
90912.6
89676.5
89053.6
103423
103608
103939
104317
104598
104583
103942
102493
100297
97670.9
95032
92714.4
90899.5
89666
89044.3
103420
103605
103935
104313
104594
104581
103942
102492
100294
97664
95023.3
92706.3
90892.8
89660.4
89039.3
103045
103339
103897
104638
105387
105939
105706
104089
101209
97685
94313.4
91550.2
89503.2
88161.4
87499.3
103047
103342
103902
104644
105394
105943
105706
104092
101216
97698.9
94328.5
91562.1
89511.7
88167.9
87504.9
103051
103347
103911
104658
105409
105954
105705
104098
101230
97731.1
94363.3
91587.4
89528.5
88180.3
87515.4
103056
103355
103925
104677
105430
105955
105680
104091
101213
97765.8
94418.4
91626.7
89552.6
88196.9
87529.1
103063
103366
103942
104700
105450
105933
105610
104010
101161
97824.3
94484.2
91674
89581.5
88215.3
87543.7
103069
103377
103961
104726
105483
105922
105585
104008
101179
97875.4
94562.9
91726.3
89609.8
88232.6
87556.6
103073
103383
103971
104745
105478
105936
105577
104003
101187
97910.2
94702.4
91778
89634.7
88244.6
87565.1
103074
103385
103975
104751
105490
105950
105601
104005
101176
97910.8
94708.4
91787.7
89642
88250.2
87568.1
103069
103379
103968
104742
105475
105932
105572
103998
101182
97904.6
94697.8
91774.5
89632
88242.2
87562.4
103062
103369
103954
104718
105475
105915
105576
103999
101168
97866.3
94554.9
91719.6
89604
88227.1
87551.2
103052
103355
103931
104690
105440
105923
105600
103999
101150
97815.2
94476.2
91666.8
89574.8
88208.6
87536.9
103042
103342
103912
104665
105419
105945
105672
104083
101206
97760.1
94413
91621.2
89546.6
88190.2
87522
103035
103331
103896
104644
105397
105944
105697
104094
101229
97730.1
94361.9
91584.6
89524.1
88174.5
87508.8
103029
103324
103885
104629
105381
105934
105701
104091
101218
97702.2
94330.8
91562
89508.9
88163.2
87499.1
103026
103320
103880
104623
105374
105930
105701
104090
101214
97690.7
94317.7
91551.6
89501.4
88157.4
87494
102286
102739
103644
104972
106587
108208
109143
107210
102834
97437.1
92829.3
89448.1
87126.3
85675.9
84981.5
102286
102741
103649
104981
106599
108219
109137
107215
102842
97459.3
92850.9
89462.1
87135.2
85682.7
84987.4
102289
102746
103661
105003
106630
108246
109141
107242
102893
97532.5
92906.7
89493.4
87153.3
85695.6
84998.3
102292
102755
103681
105043
106675
108291
108981
107266
102815
97672.4
93018.4
89545.6
87179.5
85712.7
85012.3
102296
102766
103706
105080
106731
108245
108216
106966
103628
97873.2
93158.3
89619.4
87210.2
85729.8
85026.1
102302
102780
103746
105168
106834
107469
108098
106948
103687
99138.2
93338.2
89703.6
87245.2
85745.4
85037.7
102304
102788
103766
105199
106176
107508
108071
106920
103672
99182.4
94640.7
89765.1
87263.3
85754.1
85043.6
102304
102793
103778
105211
106181
107532
108098
106825
103670
99200.7
94633.3
89776.8
87284.5
85765.8
85046.1
102299
102784
103762
105195
106172
107515
108069
106896
103665
99186.6
94630.9
89760
87259.5
85750.6
85039.4
102292
102770
103736
105159
106824
107470
108066
106911
103649
99153.1
93322.9
89692.6
87235.7
85736.7
85029.3
102282
102752
103693
105068
106718
108232
108185
106944
103644
97858.1
93144.8
89608.4
87200.3
85720.1
85015.8
102274
102737
103664
105027
106660
108278
108969
107256
102804
97664.1
93011.2
89538.1
87171
85702.9
85001.8
102268
102726
103642
104986
106614
108233
109133
107240
102894
97535.4
92908
89491.3
87147.9
85687.5
84988.8
102264
102719
103628
104962
106583
108207
109133
107219
102852
97471.8
92859.6
89464.8
87132.7
85676.4
84979.1
102262
102716
103622
104953
106571
108196
109140
107218
102850
97454
92841.5
89453.3
87125.4
85670.8
84974.1
100956
101584
102889
104964
107862
111491
115366
112670
105281
96161.5
89862.6
85995
83566.2
82137.8
81483
100953
101583
102893
104974
107880
111514
115363
112680
105308
96201.8
89889
86006.8
83573.3
82144
81489
100950
101584
102902
105000
107935
111583
115389
112713
105403
96300.7
89953.5
86032.1
83586.8
82155.4
81499.8
100946
101587
102924
105081
108121
111768
113083
112824
107048
96822.4
90174.4
86092.4
83607.2
82171.3
81512.9
100941
101588
102952
105147
108208
110264
113057
112768
107155
99150.2
90393.4
86151.1
83623.5
82176.2
81522.5
100940
101605
103020
105368
107350
110459
113088
112657
107132
99425.9
92643.6
86285.2
83629.2
82192.6
81530.4
100932
101597
103020
104769
107424
110569
112160
111985
107495
100460
92870
88138.9
83575.6
82170.9
81524.6
100933
101607
103089
104782
107472
110608
112183
111967
107526
100512
92955.7
88211.3
83702.2
82176.3
81531.4
100926
101592
103015
104763
107454
110593
112157
111965
107487
100494
92924.2
88190.1
83568.8
82164.6
81518
100928
101593
103008
105356
107343
110470
112203
111962
107452
99475.9
92723.5
86268.6
83614.7
82176.5
81516.3
100923
101571
102935
105131
108192
110302
113017
112617
107037
99257
90368
86133.5
83608.5
82163
81506
100924
101565
102902
105060
108102
111750
113040
112795
107130
96807.7
90163.2
86081.3
83593.5
82154.9
81496.6
100924
101558
102877
104977
107914
111566
115381
112743
105415
96315.6
89960.5
86031
83579.3
82143.1
81485
100925
101555
102866
104949
107859
111498
115360
112699
105337
96235.3
89909.3
86013.8
83570.4
82134.5
81476.1
100925
101554
102861
104938
107839
111474
115364
112689
105316
96202.3
89888.5
86005.8
83566
82130.1
81471.4
98801.7
99557
101188
103977
108406
115350
120985
126378
112698
91536.1
84215.2
80646.8
78573
77480.3
77017.5
98793.9
99550.5
101185
103984
108430
115379
120994
126378
112692
91550.1
84224.7
80645.1
78575.8
77486
77024.4
98778.6
99537.1
101177
103983
108458
115451
121011
126389
112691
91560.3
84220.2
80626.1
78572.6
77494
77035.9
98759.6
99526.8
101188
104058
108879
113294
121118
126511
112722
96112.4
84367.9
80563.3
78575.6
77506.4
77049
98729.9
99494.9
101164
104139
107649
113591
121448
124118
114168
96901
87681.8
80504.4
78492.8
77489.9
77053.6
98712.9
99474
101230
103722
107772
112655
119683
123058
114213
99266.7
87912.8
82944.9
78419.3
77458.5
77051
98685.4
99437.3
101222
103770
107927
112708
118778
123062
114743
100294
89689.1
83039.5
78345.9
77414.8
77034.2
98671.9
99409.6
101218
103832
107273
112200
118806
123045
114729
100367
89719.6
83074.5
80275.8
77377.4
77033.6
98678.4
99429.6
101214
103800
107262
112679
118796
123024
114691
100337
89697
83020.5
78330.8
77402.6
77022.6
98696.7
99458.4
101215
103697
107880
112700
118736
123021
114664
100222
89666.8
82998.1
78400.7
77437.1
77029.2
98707.3
99472.6
101143
104119
107639
113637
119548
123982
114100
99015.8
87802
80477.8
78467.8
77463.9
77026.8
98730.3
99498.1
101160
104031
108855
113319
121141
126502
112719
96281.5
84351.1
80544.8
78551.4
77480.5
77021.7
98744.4
99503.4
101144
103952
108430
115427
121004
126387
112737
91606.8
84239.4
80626.8
78562.1
77473.8
77011.4
98756.2
99513.4
101149
103950
108400
115356
120978
126396
112765
91631.4
84262.8
80658.2
78570.7
77469.9
77003
98762.1
99518
101150
103941
108373
115327
120980
126406
112778
91628.7
84261.7
80665.3
78572.5
77466.8
76998.1
95598.6
96333.6
97971.3
100944
105995
112902
129498
159407
116764
83880
73889.7
72662.1
71981.3
71779.1
71731.5
95582.4
96317.2
97954.8
100927
105988
112899
129483
159388
116590
83797.6
73844.3
72632.7
71979.9
71787.2
71742.2
95547.9
96276.3
97904.7
100856
105880
112880
129412
159348
116519
83770.2
73757.9
72584.7
71972.3
71797.6
71760.7
95500.6
96225.4
97849.6
100647
105255
113264
129428
159235
116344
83916.7
77144.6
72308.3
71941.7
71804.1
71781.9
95429.1
96128.9
97660.3
100711
105291
112379
126482
159134
117516
87954.8
76938.5
74534.2
71759.5
71782
71791.1
95359.6
95986.5
98123.4
100776
105035
112372
125085
154142
122380
90086.4
79279
74497.1
73479.2
71727.8
71792.7
95316.8
95938
98116
100773
105068
111948
125012
154089
122461
90287.4
80682.3
76092.8
73478.8
71744.6
71798.1
95281.4
95903.6
98170.3
100795
105068
111928
124988
154095
122601
90463.4
80799.4
76148.7
73516.4
71764
71782.2
95308.1
95929.7
98120.1
100808
105085
111927
124984
154055
122346
90344.3
80773.2
76133.9
73460.9
71723.8
71779.5
95339
95966.3
98118.6
100741
105071
111938
125009
154050
122149
90073.2
80604.5
76055.5
73456.4
71692.6
71756.8
95399.4
96100.2
97633.1
100691
105279
112391
125091
154119
122082
89860.8
79278
74469
71716.9
71738.2
71747
95462.9
96188.3
97812.6
100612
105122
113168
126466
159138
116484
88065
77041.5
72275.2
71904
71761.7
71737.1
95502.9
96231.4
97861.6
100814
105840
112845
129391
159269
116596
83909
73802
72583.4
71949.3
71762.2
71720
95533
96268.4
97906.4
100880
105941
112869
129424
159361
116753
83972.8
73903.2
72649
71966.9
71758.1
71706
95546.5
96281.7
97920
100893
105943
112852
129450
159393
116860
84017.6
73959.3
72684.4
71973.4
71753.6
71698
91278.9
91737.3
92753.1
94603.2
97622.6
104409
111954
109735
26532
53795
59113
62250.3
64238.3
65490.9
66063
91254.6
91710.5
92722.1
94562.1
97590.1
104374
111929
109663
23750.6
53568.5
59014.1
62228.9
64252.8
65511
66084.9
91202.1
91645.8
92646.4
94489.7
97470.2
104275
111841
109593
23387.7
53517
58974.7
62267.9
64295.5
65552.8
66128.6
91125.5
91540.7
92518.8
94202.7
98736.7
103870
111597
109479
23343.9
53727.6
60434
62441.1
64374.4
65611.7
66191.4
91016.6
91397.7
92287.8
95324.9
98489.8
104271
112353
109308
25623.1
57296.3
62090.1
63829.3
64555.1
65707.1
66260.9
90892.4
91251.5
93413.6
95207.1
98949.8
104503
112183
109052
26605.1
57967.7
63300.5
64150.1
65730.4
65853.8
66331.2
90841.8
91192.3
93385.5
95129.6
99193.5
104456
112111
108975
25884
58705.2
63904.7
65287.5
65824.3
65953.8
66393.8
90814.7
91153.1
93347
95750.9
99193.5
104440
112092
108924
27842.2
59754.1
64431.5
65966.2
65945.3
66005.6
66398.4
90829.5
91180.3
93342.2
95738.9
99191.6
104440
112099
108973
25045.8
59679.1
64436.9
65954.2
65870.2
65923
66363.4
90865.1
91225.4
93381.1
95125.9
99181.6
104457
112130
109053
24294.7
58579.1
63876.4
65218.4
65722.9
65798.7
66274.7
90977.7
91359.7
92250.6
95230.1
98949.7
104499
112206
109152
23955.6
57640.8
63176.5
63882.4
64482
65634.5
66189.6
91075.8
91491.9
92471.6
94158.1
98608.1
103540
111302
109401
23940.7
55540.5
60343.4
62389.3
64311
65542.2
66119.6
91143.2
91587.6
92589.6
94435
97415.8
104018
111639
109442
24013
53691.4
59013.3
62256.4
64251
65492.6
66062.5
91189.6
91645.8
92657.7
94496.7
97522.7
104277
111801
109506
24348.4
53845.8
59103.9
62237.1
64221.1
65459.4
66025
91210.4
91668.8
92684.2
94532.6
97547.9
104328
111854
109542
24471.6
53959.4
59191.9
62263.2
64212.6
65443.9
66006.8
86106.9
86045.9
85901
85680.4
85747.2
89900.2
93762.6
107083
3872.92
32633.5
45498.7
52421.5
56970.9
59632.7
60827.7
86079.2
86015.2
85867.7
85641.4
85723.3
89855.7
93723.7
106889
2240.33
32596.6
45447.4
52460.7
57017.2
59673.4
60866.9
86023.4
85951.3
85798.6
85609.2
85669.9
89746.1
93620.2
106804
2240.7
32645.5
45578.2
52607.4
57134.5
59770.9
60951.5
85946.3
85847.2
85697.6
85655.5
88420.2
89678.4
93405.1
106685
2231.34
32922.4
45865.6
53062.7
57358.8
59931.6
61084.2
85848.2
85727.9
85633
87625.3
88439.7
91515.3
94479.4
106702
2238.73
32798.2
46708.2
53970.4
57720.5
60176.4
61255.7
85743.5
85691.4
87207.3
87543.9
89678.6
92325.9
94398.5
106359
2204.16
33509.7
47531.1
54354.2
58548
60421.9
61432.3
85705
85662.5
87116.7
87516.4
90330.8
92291.2
94397.3
106372
2452.55
35151.8
48537.2
55110.6
58760.2
60560.9
61534.3
85681.3
85631.8
87059.6
88499.7
90308.6
92297.8
94434
106396
30547.3
39345.9
49677.1
55665.1
58856.3
60612.1
61546.6
85688.4
85646.6
87050.8
88486
90307.7
92298.7
94438.9
106443
40744
40428.2
49738.4
55634.6
58780.2
60506.3
61484
85707.3
85656.7
87085.3
87519.2
90311.6
92293.2
94409.6
106421
11387.6
36283.1
48601.4
54980
58583
60332.1
61344.4
85796.7
85678.2
85585.8
87517.3
89693.5
92337.7
94408.3
106404
2385.31
33729.2
47470.3
54018.8
57595.5
60057.7
61142.6
85880.9
85783.1
85636.2
85600.4
88412.9
89787.3
93551.8
106714
2475.7
32943.3
46155.6
52950
57244.6
59819
60973.1
85946.3
85875.4
85724.7
85537.8
85601.3
89643
93440.7
106626
2393.9
32801.6
45555.6
52555.6
57048
59671.6
60848.7
85994.2
85930.7
85783.7
85556.9
85635.7
89722.6
93566.2
106714
2433.69
32771.7
45480.6
52426.7
56947.7
59586.4
60772.7
86017.4
85956.6
85811.4
85588
85647.9
89785.8
93627.2
106764
6913.07
32700.8
45511.1
52395.8
56909.3
59551.6
60738.3
80776.6
80135.6
78802.4
76678.2
76393.7
75439
78097.1
4163.5
24941.2
38279.3
46423.2
52081.9
55469.1
57044.4
80748.7
80105
78770.4
76645.8
76351.5
75382.2
78034.4
2205.72
24741.2
38303.5
46521.8
52151.2
55526.6
57096.8
80699.1
80055
78709.7
76587.2
76332.1
75318.1
77902.4
2224.87
24655.1
38575.3
46683.5
52303
55661.7
57208.1
80644.1
79995.9
78640.5
76713.6
76598.6
75214.8
77702.9
2238.77
24954.1
37725.7
47240.4
52591.6
55879.8
57383.1
80593.5
79945.5
78741.4
78726.8
77153.7
77311.4
78402.2
2247.45
22816.9
37574.1
47153
53031.2
56195.1
57609
80545.9
80027.5
80195.9
78990.2
78540.4
78341.3
78447
2267.04
23310
37959.6
47653.7
53136.6
56426.4
57838.9
80526.4
80028.5
80131.4
79088.7
79378.5
78496.7
78646.5
2278.06
25828.9
39258.2
47942.4
53454.5
56546.8
57935.4
80503.1
80011.6
80104
79976.5
79511.5
78639.2
78905.5
48756.9
31446.7
40593.9
48246.4
53541.8
56574
57937.2
80503.5
80006.8
80088.1
79978.7
79508.3
78639.9
78914.6
2274.79
28921.2
40260.4
48126.5
53426.8
56451.2
57854.4
80497.5
79980.6
80113.8
79054.9
79362.8
78490
78653.9
2324.53
25177
38858.1
47617.2
53160.7
56266.5
57693.6
80524.8
79879.3
78680.1
78670.1
78465.6
78317.7
78443.8
2335.78
23409.3
37715.1
47150.8
52792.1
56005.6
57441.9
80557.8
79911.2
78560.1
76644.4
76610.3
75320.5
77447.2
2322.37
23502.3
37802.9
46989.7
52390.7
55701.2
57221.1
80598.2
79956
78614.8
76499.8
76258.1
75203.1
77725.6
2350.48
24619.9
38433.1
46558.3
52148.6
55506.8
57058.6
80638.3
79995.5
78663.2
76541.6
76277.7
75250.1
77835.2
2376
24742.3
38250.5
46408.8
52021.7
55391.2
56958.5
80660.7
80020.2
78687.9
76562.7
76254.6
75276.4
77889
2402.01
24757.1
38223
46336.9
51966.9
55342.7
56912.6
76200.8
75019.3
72542.3
68209.3
65979.5
58595.4
54552.8
3227.14
2163.69
23669.2
36074.6
44532.8
50306.3
53786.8
55454.1
76166.4
74979.9
72492.7
68143.1
65906
58477.8
54389.3
2602.5
2201.76
23489
36158.7
44627.2
50368.3
53848.1
55508.8
76106.5
74917.6
72402.4
67999.6
65791.4
58281.4
54119
2593.84
2215.4
20345
36563.5
44849
50542.7
53988.4
55623.2
76044.1
74859.2
72264.6
67890.2
65665.4
58062.7
53977.1
2282.34
2247.9
21031.7
34320.7
45263.7
50801.1
54208
55795.1
76000.9
74801.1
72172.4
70810.1
65436.5
60925.9
55853.4
2274.38
2274.6
19092.8
33575.2
44089.8
51215.6
54513.2
56006.4
75966
74784.1
74064.9
70675.3
67394.5
62336.9
56072.1
2280.56
2287.64
19506.5
33699.7
44631.1
50537.7
54735
56217.3
75933
74750.1
74029.6
70584.4
68317.1
62607.5
56619
2822.58
2257.66
21778.5
34919.9
44385.1
50826.1
54833.4
56298.7
75900.8
74728.9
73994
71934.3
68415.6
63007.6
57890.9
10733.9
11984.3
25980.8
35890.9
44315.8
50893.3
54829.2
56288.4
75900.3
74718.7
73985.6
71940.3
68409.6
63028.2
58035.4
17870.4
2429.22
22928.1
35270.2
44066
50720.8
54687
56185.5
75900.3
74720.5
74015.2
70569.5
68313.7
62602.6
56638.2
2354.6
2291.22
20317.1
33978.7
43771.4
50397.6
54488
56018.6
75908.2
74710.2
72084.7
70716.4
67364.8
62307.3
56073.8
2651.22
2288.28
19268.9
33010.8
43819
50817.4
54236.3
55772.4
75929.4
74745.9
72156.9
67798.1
65510.3
58021.5
53993.7
2966.76
2300.87
19576.3
34103.8
44856.9
50497.4
53948.6
55566.6
75974.7
74788.2
72279.1
67891.6
65615.4
58128.2
53999.2
2530.46
2365.62
20375.3
36290.7
44584.1
50298
53772.3
55415.4
76023.2
74838.2
72355.5
68015.3
65761.4
58277.5
54082.2
2289.65
2384.04
23621.6
36077.4
44469.3
50185.8
53662.3
55321.8
76051.2
74870.7
72396.4
68067
65818.8
58370.8
54144.2
2289.53
2407.38
23825.2
36064.8
44412.9
50142.5
53616.1
55278.5
73214.1
71611.1
68209.8
62189.1
51779.7
42296.2
17883.2
2317.85
2189.61
25570.4
37735
45949.5
51409.9
54680.5
56238.9
73162.1
71549.6
68119.4
62063
51598.7
42073.6
17781.6
2257.36
2202.62
25408.8
37865.8
46014.7
51455.7
54728
56281.1
73069.3
71447.2
67976.7
61882.1
51333.9
41554
17573.8
2255.71
2219.75
21102
38067.4
46223.7
51607
54839.9
56371.9
72957.2
71341.6
67773.2
61656.7
55703.4
41091
17537.5
2272.11
2245.73
21402.6
34676.5
46538.9
51820.2
55007.3
56506
72860.9
71236.8
67637
64189.6
55572.4
44859
23906.9
2274.02
2277.36
18989
33735
44559.8
52172.9
55260.3
56673.8
72783.7
71131.3
69280.8
64086.4
57777
46799.9
24826.9
2273.33
2267.04
19782.2
33965.8
45201.9
50806.4
55464.3
56843.3
72708.7
71037.6
69260.7
63982.1
58809.3
47157.2
25496.5
2288.19
2280.23
21584.5
35332.9
44619.6
51068.5
55539.1
56897.7
72658.8
70991
69215.7
65378.8
58848.5
47740
27691
5883.66
2322.3
22451.2
35821
44193.6
51083.8
55504.5
56872.9
72661.8
70987.9
69204.6
65369.1
58831.8
47804.5
28981.4
14349.7
2294.66
21363.6
34818.5
43703.1
50837.5
55342.4
56755.1
72692.5
71038
69240.1
63949.6
58760
47092.6
25344.4
2288.86
2265.29
19599.6
33351.5
43449
50448.7
55138.9
56597.1
72734.5
71109.1
67503.9
64130.3
57702.9
46732.1
24808.2
2315.42
2293.24
18589.9
32318.7
43872.9
51628.4
54901.6
56386.7
72804.2
71187.9
67621.9
61518.1
55571.2
41119
19208.6
2276.26
2275.83
19171.9
34206.8
45960.3
51389.2
54673.4
56225.2
72896.9
71276.1
67812
61736.3
51246
41373.5
17675.9
2279.79
2379.32
20941.4
37671.8
45851.4
51282.8
54569.3
56117.4
72976.9
71365.6
67941.3
61901.2
51476.7
41818.1
17670.4
2264.19
2391.3
25516.4
37719.5
45792.4
51219.3
54494.7
56052
73021.9
71419.7
68023.3
62015.9
51636.1
42130.7
17801.8
2272.82
2410.85
25920.7
37771
45798.7
51207.5
54467.7
56023.7
72475.1
70802.9
67224
61093.3
50177.7
39160.7
4826.19
2303.15
2187.37
31683.3
42901.5
50382.7
55086.3
57833.7
59128.1
72399.1
70712.7
67085.6
60852.3
49967.4
38494.1
4285.34
2239.68
3513.32
32214.1
43087.8
50401.9
55106.8
57851.1
59146.3
72266.2
70561.3
66873.4
60514.6
50217.3
36835.4
6728.42
2268.77
2216.18
25003.3
43338.3
50570.3
55187.6
57915.7
59197.4
72099.4
70393.5
66632.4
60237.6
52245.9
35752.6
8072.71
2287.23
2229.7
25293.8
38921.9
50813
55311.7
58010.6
59275.6
71944.6
70238.7
66489.7
61605.4
51785.4
38237
16968
2277.89
2270.07
22444.3
37854.6
48253.5
55619.1
58198
59386.8
71814.3
70099.4
67287.3
61333.4
53149.8
39396.8
17272.7
2282.6
2276.1
25975.7
38976.9
49058.4
53749.6
58366.4
59508.1
71693.5
69951.9
67179.3
61128
53722.5
39539.6
19474.2
2316.7
2282.48
35010.4
42250.6
48471.4
53969.4
58411.6
59532.2
71624.6
69872.3
67102.5
62065.8
53575.5
39634.1
20145.5
2342.03
2283.6
37562.8
42828.3
47877.5
53919.3
58353
59494.1
71627.3
69877.1
67095.6
62038
53530
39535.8
18785.8
2294.34
2302.44
28202.2
39705
46935.4
53610.4
58193.9
59377.4
71689.2
69964.8
67141.7
61109.6
53609.8
39311.2
18211.7
3599.79
2308.58
22969.3
36801.1
46487.4
53204.1
58014.6
59246.1
71774.4
70060.6
66291.9
61382.7
53034.8
39266.6
17142.6
2312.59
2304.21
21085.9
35330.8
47193.2
55002.6
57807.3
59080.1
71897.1
70185.2
66415.7
60024.6
51837.9
36037.4
16667.2
2288.1
2313.1
21865.6
38046.5
50123.9
54823.9
57652.2
58975.7
72042.1
70334.5
66645.3
60301.2
50051.2
36206.6
7725.52
2300.65
2395.66
24504.7
42801
50115.2
54816.4
57612
58920.4
72161.1
70472.6
66846.4
60638.7
49763.6
38574.2
4802.64
2263.92
3341.53
31981.4
42852.4
50111.1
54826.4
57590.2
58894.6
72229.7
70556.4
66979.6
60884.7
49978.1
39386.3
4718.82
2262.05
4081.34
32122.4
42988
50196.6
54859.8
57593
58889
74235.3
72969
70274
66015.7
56656
47325
6454.51
2258.62
27890.7
47945.2
52820.5
58053.1
61077.5
62847.5
63702.3
74135.6
72844.6
70079.1
65602.1
56033.5
46184.9
2229.2
2287.74
29016.3
48033.8
52810.6
57975.3
61045.8
62830.2
63692.9
73964.6
72640.8
69795
64957.5
57612.8
43081
12105.5
2585.95
10877.6
36964.4
53044
57905.8
60999.2
62828.6
63691
73748.2
72385.5
69403.5
64417.7
56453.9
41325.1
13483.4
2294.61
2237.52
35166.7
47493
57895.3
60939.8
62822.6
63696.9
73537.5
72140.5
69109.9
64064.5
55239.6
41223.7
18686.8
2273.29
2249.95
29981.1
45560.9
54676.5
61115.9
62906
63735.3
73351.4
71945.2
68844.9
63373.3
54974.6
40868
18066.8
2272.93
2278.37
37262.8
46752.9
55137.3
58770.8
63012.8
63800.3
73183
71734.1
68523.5
62898.9
54634.4
39971.7
17626.7
2324.22
105422
67506.1
51082.4
54250.2
58845.5
63015.1
63790
73092.7
71620.9
68356.5
63044.8
54101.9
39017.1
15283.8
2289.39
113885
73904.9
51474.8
53564.4
58767
62959
63749.8
73094.6
71630.5
68354.9
63003.5
54024.8
38938.4
15234.1
2315.84
2331.53
39969.3
47026.6
52597.3
58533.9
62848.7
63661.3
73187.7
71761
68482.1
62902.7
54435.8
39746.3
17414.4
2291.82
5246.81
30222.2
43668.3
52382.1
58266.3
62737.6
63581.9
73317.3
71901.5
68827.2
63431.3
54833
40695.5
17992.5
2323.07
2342.92
27690
42341.4
53673.2
60623.3
62576.7
63466.8
73489.3
72111.1
69100.1
64085.8
55506.4
40766.4
17929.1
2335.97
2369.19
29459.3
46346.7
57274.8
60516.3
62506.1
63427.6
73680.7
72345.2
69477.8
64621.8
57270.4
42082
12816.4
2309.48
9982.7
35011.2
52432.7
57435.3
60638.1
62532.8
63425.4
73835.6
72534.3
69750.9
65275.8
55695.7
46041
2430.36
2356.21
28488.2
47583
52472.5
57618
60747.2
62564.3
63441
73927.4
72652.7
69943.3
65701
56386.9
47380.5
7648.57
2409.81
29608.8
48097.3
52793
57798.8
60832.1
62598.9
63459.3
78041.3
77543
76541
76247.7
74266.7
81852
117631
97141.3
83076.1
72623.4
67724.1
68535.7
68749.5
69140.5
69401
77925
77383.2
76291.4
75634.7
73118.3
79926.6
110027
85830.2
79883.1
71413
67276
68266.4
68636.2
69081
69361.3
77725.1
77120.4
75921.3
74131.2
72604.2
64680.1
60209
38902.2
46506.3
59125.5
66554.3
67607.6
68411.8
68990.3
69298.2
77469.4
76788.4
75354.9
73271.8
67340.2
59167.8
39059.4
12008.1
22267.4
55312.2
61035.6
67082.8
68124.7
68868.2
69223.6
77214.4
76456.8
74900
70816.8
65655.3
54983.4
31491.3
2234.79
10685.9
45038.6
57286.2
63520.5
67995.9
68809
69170
76988.6
76195.3
73366.6
69867.3
63459.4
52051
28843.9
2251.94
13901.5
42971.2
55027.8
63037.9
65399.6
68771.5
69166.7
76784.6
75939.1
72894.5
69212.2
61987.8
49583.9
26547.4
2241.42
2302.43
34247.6
54118.8
60963.3
65245.8
68722.9
69120.6
76676.8
75803.4
72671
68399.1
61001.2
47235.3
18355.8
2268.36
2287.87
31362.8
53707.4
60010
65225.6
68695.2
69094.7
76674.1
75807.9
72656.9
68336.4
60841.3
46851.8
19364.1
2300.94
5380.66
41557.9
53992.1
59926.6
65226.2
68663.6
69056.7
76786.9
75962.3
72847.8
69180.7
61613.7
48870.8
24433.5
2317.25
13166.9
41835.8
54001.3
60882.2
65235.8
68656.1
69050.1
76944.6
76153.4
74516.5
69844.3
63252.6
51690
28734.4
2324.01
10870.5
42163.2
54317
63043
67803.7
68629.7
69000.5
77154.8
76445.5
74952.8
72786.6
65846.8
57255.7
32451.5
2337.79
10509.8
47183.9
59912.7
66760.3
67864.8
68650.3
69021.1
77381.2
76751.8
75500.4
73633.7
72021.5
60833.7
46074.5
27401.1
39104.1
56310.5
66063.9
67235.4
68122
68744.3
69073.3
77562
76996.9
75853.4
75138.5
72506.3
79331.3
109094
86547.1
79309.3
70920.7
66849.5
67888
68350.2
68829.8
69128.7
77668.6
77148.2
76094.7
75731.2
73611.7
81447.4
115113
103867
84221.7
72488.6
67503.3
68212.5
68490.1
68893.4
69167.7
82813.2
83112.5
83623.9
86470.6
90457.4
95558.2
121794
121978
107209
89900.2
81755.2
78802.6
76566.9
75749.4
75436.6
82709.8
82963.5
83454.4
86128.5
89951.4
96342.2
126524
129652
108291
89591.6
81431.9
78531.5
76438.3
75668.1
75379.9
82520.6
82672.7
83184.9
84532.8
88612.7
91575.8
116573
146076
113466
87684
80337.2
77655
76150.7
75512.3
75273.7
82270.8
82339.8
82597.4
83542.9
82743.9
88251.2
108421
149883
108887
84660.9
77406.4
76679.5
75724.4
75305
75135.6
82013.7
81994.4
82036.3
80239
80678.6
80004.3
81163.5
85954
82297.9
75028.5
73490
73901.2
75326
75119.9
75005.3
81790.6
81636.8
79898.9
79264.6
77139.4
74496.6
69670.7
29362.8
56356.7
65033.8
68842.2
72838.5
73117.9
74924.3
74920.2
81585.8
81374.9
79455.2
78557
74704.8
70751.2
56894.1
2262.18
2252.11
46478.5
64799.7
70381.5
72870.8
74826.6
74846.3
81475.1
81241.5
79225.7
76941.1
73662.3
67806.5
49000.4
2051.27
2282.83
45037.8
64086.3
69221.7
72849.9
74822.2
74837.1
81459.8
81227
79190.2
76856.1
73427.1
67011.7
42408.9
3567.37
25645.5
58428.1
66966.1
69911.6
73015.5
74855.6
74844.8
81562.1
81373.3
79355.2
78419.7
74150
69635.1
54313.6
2445.99
34581.3
65538
69608.1
71702.8
73279.3
74949.8
74903.8
81708.5
81645.1
81582.9
79132.4
76673
73680.8
69404.7
45247
63363
71067.8
71506.6
73833.2
75372.9
75081.1
74933.7
81915.6
81945.7
82118.9
82931.2
80990.3
84578.3
89236.2
122756
86435.1
78685.2
76518.7
76615
75626.3
75189.6
75012.3
82131.7
82246.3
82675
83874.7
87705.9
89720.9
113868
148743
111329
86041.6
79929
77388.9
75947.3
75330.7
75102.3
82298
82514.6
82918.7
85455.2
88961.2
95081.7
123869
124518
106221
88705.6
80894.5
78170.4
76182.1
75447.1
75178.8
82388.4
82646.9
83063
85718
89152.6
94174.3
116589
112182
104711
88912.1
81274.1
78425.7
76303.9
75514.7
75223.4
87251.8
87941.4
88914.2
91620.6
95973.2
95542.4
101613
106687
102343
93998.1
89209.1
85702.7
82843.9
81564.3
80935.9
87213.9
87890.5
88965.3
91927
96494.8
97316.5
105446
110812
104053
94721.4
89513.3
85711.8
82825.8
81519.7
80898.1
87121.3
87712.5
89071.2
91598
96257.4
99382.1
106678
120211
106801
97145.1
89305
85361.5
82717.2
81400.3
80812.6
86962.6
87515
88788.1
91537.1
93305.4
101458
115338
134503
116964
98172.5
89021.3
84807.4
82424.5
81211.6
80681.7
86763.5
87246.5
88367.1
88924.6
92745.1
99155.2
116143
157563
125245
98681.1
87624
83299.5
81990.1
80987.3
80529.1
86566.6
86873.6
86640.3
88143.7
90204.4
96447.7
115927
166678
123868
94558.6
85115.4
82408.4
80626.8
80715.5
80404.5
86401.4
86659.7
86378.5
87598.8
88588.6
94865.5
113514
187526
117023
85744.1
82324.5
81018.6
80428.5
80599.4
80324.1
86309.9
86549.9
86184.2
86372
87857
93499.6
111259
195535
101179
81746.7
81793.7
80521.5
80380.9
80596.8
80324.1
86276.7
86518.9
86133
86248.1
87634.2
93055.4
110906
180912
128468
92618.3
84289.9
81210.8
80570.1
80661.5
80351.5
86338.1
86617.4
86204.5
87338.1
88021.4
93838.9
111933
181106
131106
97433.9
86404.4
82330.7
80882.6
80792.4
80432.6
86451.2
86890.4
87893.6
88029
89606.9
95219
113242
161145
127425
98719.5
87498.1
83472.2
82135.4
81013.9
80513.7
86597
87106.6
88282
90850.8
92213.1
100282
114269
149679
122796
98736.8
88652.7
84811.3
82394.4
81150.7
80607.3
86719.7
87268
88532
90891
95271.2
99299.1
108294
122255
107499
97034.1
88927.7
85143.7
82559.1
81262
80682
86788.9
87424.3
88404.7
91234.5
95455.4
96022.8
103908
106993
102642
93746.5
88964.8
85381.8
82596.2
81330.5
80728.9
86811.9
87453.4
88321.6
90894
94602.4
94180.7
99841.3
103803
101548
92826.2
88635.1
85315.3
82590.5
81352.3
80748.9
90604.9
91256.6
92018.5
93319.9
96317.4
95789.7
96718.4
101638
97218.6
93891.5
91816.8
89296.2
87097
85991.6
85344.2
90649.3
91321.8
92205.3
93881.2
97106.3
96882.2
98852.3
101363
98455.2
94883.1
92370.8
89519.7