/*--------------------------------*- C++ -*----------------------------------*\
| =========                 |                                                 |
| \\      /  F ield         | OpenFOAM: The Open Source CFD Toolbox           |
|  \\    /   O peration     | Version:  v2012                                 |
|   \\  /    A nd           | Website:  www.openfoam.com                      |
|    \\/     M anipulation  |                                                 |
\*---------------------------------------------------------------------------*/
FoamFile
{
    version     2.0;
    format      ascii;
    class       volScalarField;
    location    "0.043";
    object      p;
}
// * * * * * * * * * * * * * * * * * * * * * * * * * * * * * * * * * * * * * //

dimensions      [1 -1 -2 0 0 0 0];


internalField   nonuniform List<scalar> 
449343
(
107289
107418
107633
107838
107925
107667
106880
105492
103559
101288
98969.6
96875.8
95194.3
94031.4
93439.6
107273
107403
107619
107826
107913
107656
106872
105488
103559
101292
98977.1
96883.8
95201.3
94037.2
93444.6
107261
107392
107609
107819
107908
107654
106873
105496
103576
101319
99010
96917.9
95233.3
94066.4
93472.2
107251
107384
107604
107818
107909
107657
106884
105515
103608
101364
99064.6
96974
95286
94114.8
93518
107243
107378
107602
107820
107913
107666
106900
105543
103652
101423
99134.5
97045.3
95352.3
94175.4
93575.1
107235
107372
107600
107822
107919
107678
106921
105577
103702
101489
99209.3
97120.8
95422
94238.5
93634.3
107225
107364
107596
107822
107922
107689
106940
105607
103746
101548
99273.2
97186.2
95481.9
94292.7
93685.2
107213
107353
107586
107817
107920
107694
106951
105626
103772
101584
99313.4
97226.2
95519.1
94327
93717.8
107196
107336
107571
107804
107910
107689
106953
105632
103781
101590
99318.4
97231.8
95526.2
94334.7
93726
107174
107315
107550
107783
107892
107674
106939
105617
103760
101560
99287.2
97200.6
95499.9
94314.2
93708.3
107150
107289
107523
107757
107865
107649
106912
105584
103719
101508
99229.6
97144.4
95450.7
94271.5
93669.4
107124
107262
107495
107726
107835
107619
106878
105543
103665
101444
99158.4
97074.6
95388
94215.9
93617.9
107098
107236
107466
107696
107803
107586
106841
105498
103610
101379
99087
97004.6
95324
94158
93563.6
107074
107210
107439
107667
107773
107554
106805
105457
103561
101322
99026.4
96945.3
95269
94107.3
93515.3
107051
107187
107416
107643
107748
107527
106776
105425
103525
101282
98984.5
96904.1
95229.9
94070.4
93479.7
107142
107318
107631
107988
108245
108205
107548
106094
103904
101293
98679.7
96391.9
94604.8
93391.9
92781
107126
107303
107617
107976
108235
108195
107540
106090
103906
101302
98691.2
96402.9
94613.9
93399.2
92787.2
107113
107291
107608
107970
108232
108193
107541
106099
103927
101337
98733.5
96444
94650.4
93431.6
92817.5
107103
107283
107604
107971
108234
108195
107546
106113
103962
101394
98803.8
96512.2
94710.8
93485.2
92867.5
107094
107277
107603
107976
108243
108200
107562
106145
104005
101471
98897.5
96601.4
94788.3
93553.1
92930.4
107086
107272
107603
107982
108254
108216
107582
106185
104073
101559
99000.1
96699.4
94871.8
93625
92996.6
107076
107265
107601
107985
108258
108236
107610
106225
104136
101642
99099.5
96787.7
94945.1
93688.1
93054.2
107062
107253
107591
107980
108257
108245
107624
106205
104168
101688
99153.8
96839.4
94990.2
93728.4
93091.5
107045
107235
107575
107965
108246
108241
107630
106262
104187
101699
99158.5
96845.4
94998.8
93737.7
93101.4
107023
107212
107550
107941
108229
108218
107613
106244
104157
101655
99102.5
96801.1
94967.1
93713.9
93081.6
106998
107186
107521
107909
108197
108190
107586
106206
104099
101585
99020.7
96724.8
94906.2
93664.8
93038.2
106971
107157
107489
107874
108161
108162
107550
106156
104041
101499
98922.2
96634.8
94831.2
93601.5
92980.9
106945
107130
107459
107841
108126
108129
107513
106112
103977
101415
98830
96548.7
94756.8
93536.6
92921.1
106921
107104
107431
107810
108093
108094
107476
106066
103919
101345
98755.4
96478.8
94694.6
93480.8
92868.7
106899
107081
107407
107785
108066
108065
107445
106031
103878
101299
98707
96432.5
94651.9
93441.3
92830.9
106769
107050
107585
108297
109014
109518
109257
107630
104755
101255
97916.1
95189.8
93175.6
91857.8
91208.1
106751
107034
107570
108286
109005
109509
109249
107628
104763
101272
97936.4
95207.2
93189
91868.3
91217.1
106736
107021
107562
108284
109008
109511
109246
107643
104793
101330
98001.8
95263.5
93235.2
91907.8
91253.4
106724
107012
107560
108290
109021
109510
109231
107659
104820
101419
98113.8
95359.9
93312.4
91973
91313
106713
107006
107563
108305
109040
109504
109199
107642
104851
101559
98266.9
95489.9
93415.1
92057.6
91389.2
106703
107001
107569
108320
109067
109517
109210
107700
104963
101717
98456.9
95641.5
93529.4
92149.8
91471
106692
106994
107568
108334
109064
109561
109250
107767
105073
101843
98687.9
95786.9
93637.1
92233.5
91544
106677
106982
107560
108332
109066
109597
109308
107770
105139
101917
98770.4
95865.5
93702.2
92288.6
91593
106658
106962
107540
108313
109048
109582
109291
107836
105170
101936
98783.2
95877.5
93715.8
92302.2
91607.3
106635
106937
107512
108276
109040
109537
109270
107809
105121
101875
98632.1
95801.1
93667.6
92271.5
91583.7
106609
106907
107474
108232
108987
109515
109252
107752
105019
101746
98463.2
95675.4
93581.5
92207.5
91529.9
106582
106876
107436
108185
108938
109493
109258
107743
104958
101586
98295.2
95537.8
93478
92126.4
91459.2
106556
106847
107401
108144
108891
109453
109229
107681
104882
101455
98146.4
95412.6
93379.7
92045.5
91386.6
106532
106821
107371
108109
108856
109403
109188
107620
104803
101349
98036.8
95317.8
93301.1
91978
91324.6
106510
106798
107347
108081
108825
109372
109155
107578
104750
101287
97973.2
95260.1
93250.3
91932.4
91281.8
106040
106475
107343
108626
110192
111729
112617
110652
106273
100902
96340
93014.4
90740.8
89324.9
88648.1
106020
106457
107327
108615
110186
111722
112602
110653
106286
100932
96371.2
93038.4
90758.8
89339.4
88660.8
106001
106441
107318
108617
110199
111736
112599
110687
106351
101043
96470.8
93112.3
90815.9
89387.7
88704.9
105983
106428
107317
108634
110228
111767
112438
110732
106335
101246
96661
93243.4
90913
89467.8
88777.4
105967
106419
107324
108663
110281
111731
111726
110516
107206
101577
96936.5
93438.9
91048
89574.4
88871.8
105952
106412
107344
108731
110370
110991
111643
110564
107405
102956
97314.4
93680.7
91209.3
89693.9
88975.6
105936
106404
107351
108762
109734
111058
111667
110635
107542
103180
98725.2
93904.7
91365.7
89807.9
89071.2
105918
106391
107346
108766
109734
111104
111745
110634
107661
103342
98867.7
94029.2
91472.1
89889.1
89136.9
105898
106368
107320
108740
109720
111093
111737
110748
107726
103403
98943.9
94062.5
91492.1
89910.4
89161.9
105874
106339
107279
108684
110351
111028
111719
110744
107687
103346
97661.8
93955
91426.8
89871.9
89133.4
105849
106306
107224
108585
110238
111747
111791
110699
107565
101907
97280.5
93738.9
91298.8
89787
89064.4
105824
106275
107178
108519
110148
111744
112494
110879
106584
101535
96958.6
93517
91152.8
89679.4
88973.5
105801
106247
107138
108461
110077
111665
112586
110762
106499
101245
96695.6
93332.4
91019.5
89574.4
88881.7
105778
106222
107107
108418
110021
111600
112540
110667
106365
101060
96527.3
93201.8
90917.3
89489.5
88805.4
105758
106199
107082
108388
109986
111562
112510
110614
106295
100973
96440.8
93127.8
90855
89435.1
88754.9
104764
105365
106616
108617
111435
114959
118742
116008
108568
99455.5
93239.5
89461.4
87105.4
85727.8
85098.7
104739
105342
106596
108602
111427
114954
118718
116002
108592
99501.9
93278.1
89486.8
87125.2
85745
85114.4
104712
105318
106579
108603
111457
114996
118728
116033
108727
99661.5
93402.6
89565.4
87187.2
85800
85165.3
104682
105293
106570
108643
111591
115158
116435
116151
110392
100237
93722.3
89728.2
87295.9
85892.1
85249.6
104652
105270
106573
108691
111683
113684
116434
116161
110655
102735
94148.7
89963.7
87459.1
86018.4
85362
104624
105257
106608
108880
110830
113883
116497
116154
110814
103301
96615.6
90345.4
87654.2
86171
85489.9
104595
105231
106590
108292
110891
114002
115639
115622
111367
104578
97169.3
92387.2
87834.2
86304.3
85609.1
104573
105216
106632
108274
110928
114059
115726
115756
111650
104940
97569.1
92677.8
88088.6
86413
85703.6
104549
105187
106551
108248
110908
114058
115739
115857
111775
105107
97689.3
92774.4
88041.7
86456.9
85735.6
104532
105170
106531
108821
110804
113946
115766
115842
111714
104092
97370.8
90811.5
87999.1
86428.6
85707.6
104514
105138
106454
108595
111630
113745
116557
116400
111164
103640
94765.2
90457.4
87834.5
86315.5
85620.9
104497
105115
106405
108501
111488
115128
116483
116370
110938
100742
94205.1
90143
87636.4
86177.2
85505.9
104481
105094
106369
108415
111304
114905
118700
116189
108947
99972
93736.6
89877.7
87463.4
86043.8
85390.9
104464
105074
106341
108369
111226
114802
118635
116040
108709
99692.8
93501.6
89711.5
87335.5
85938.4
85297.2
104447
105055
106319
108342
111190
114757
118612
115967
108614
99565.8
93388.2
89621.1
87260.6
85873.6
85237.8
102700
103418
104973
107656
111962
118775
124326
129553
115725
94543.9
87409.1
83983.5
82024.3
81006.1
80579.7
102668
103387
104943
107630
111948
118762
124298
129532
115721
94577.6
87436.6
83998.9
82040.9
81023.5
80596.8
102626
103345
104904
107595
111939
118782
124270
129514
115734
94636.1
87482.9
84031.8
82094
81079.4
80651.3
102575
103298
104870
107613
112254
116598
124325
129611
115851
99343.5
87777
84094.8
82188.1
81176.4
80743.1
102516
103236
104811
107635
111040
116839
124565
127248
117387
100333
91319.7
84283.9
82306.2
81302.6
80868.5
102464
103176
104826
107225
111116
115910
122819
126274
117689
103094
91984.8
87019
82517.5
81459.8
81016.8
102411
103112
104789
107240
111230
115929
121952
126417
118623
104676
94237.2
87542
82716.6
81605.4
81156.5
102370
103055
104789
107281
110607
115452
122021
126638
119198
105461
94887.8
88013.4
84883.6
81712.9
81268.8
102356
103057
104738
107231
110588
115921
122072
126837
119650
105980
95259.9
88178.7
83076.8
81831.7
81330.3
102354
103070
104726
107124
111157
115939
122044
126845
119569
105889
95132.2
88066.1
83057.2
81821.4
81305.6
102350
103075
104659
107501
110925
116877
122824
127624
118547
104091
92762.3
85089.2
82853.4
81701.3
81200.2
102354
103083
104665
107426
112094
116542
124403
129882
116509
100451
88517.9
84694.3
82647.6
81540
81059.3
102354
103079
104649
107358
111727
118616
124218
129625
116127
95081.2
87938.9
84445.6
82444.1
81375.9
80919.1
102348
103072
104640
107345
111687
118548
124152
129522
115883
94833.1
87726.6
84280.4
82295.1
81250.1
80807.1
102336
103060
104626
107327
111658
118520
124138
129470
115766
94681
87595.2
84178.1
82208.3
81174.7
80738
99640.4
100326
101866
104697
109577
116329
132716
162567
119292
86495
76861.4
75864.8
75350.2
75249.9
75251
99598.7
100282
101817
104644
109523
116283
132647
162507
119256
86484.5
76853.6
75858.7
75360.8
75265.9
75268.4
99534.9
100210
101732
104522
109356
116188
132473
162367
119186
86501.1
76752.2
75835.7
75398.1
75316
75323.6
99451.9
100118
101621
104257
108703
116460
132351
162097
119055
86744.8
80281.2
75653.8
75456.9
75405.1
75419
99345.7
99983.8
101385
104285
108643
115498
129297
161780
120261
91050.3
80385.1
78173.4
75481.8
75526.6
75552.3
99234.5
99793.1
101814
104278
108342
115358
127748
156599
125446
93703.5
83288.6
78567.6
77529.2
75688.9
75721.4
99161.8
99710.8
101767
104220
108301
114873
127500
156342
126447
95050.3
85590
80817.6
77849.4
75915.5
75897.1
99091.2
99641.8
101785
104204
108251
114785
127361
156316
128486
97309.8
87030
81660.5
78323.4
76105.8
76007.8
99095.2
99644.1
101712
104194
108248
114766
127354
156495
130694
99181.8
88055.3
82166.3
78498.2
76195.3
76116.6
99100.6
99662.9
101697
104118
108245
114813
127480
156677
129867
98472.8
87728.5
82003.7
78447.5
76139.2
76072.1
99142.5
99781.5
101188
104096
108445
115304
127706
156819
127376
96235.3
85273.3
79622.7
76204
76017
75943.9
99185.3
99853.6
101362
104010
108351
116132
129240
161887
120424
92603.3
81552.8
76442.5
76022.2
75829.3
75776.1
99209.4
99888.3
101417
104216
109063
115915
132213
162128
119659
87294.7
77291.8
76330.2
75798.5
75641.3
75610.1
99219.9
99906.6
101450
104288
109179
115958
132327
162290
119411
86834.9
77180.4
76167.8
75630.4
75498.2
75479.7
99215
99904.2
101451
104295
109188
115959
132393
162348
119280
86614.5
77048.6
76060.1
75531.6
75412
75400.7
95534.3
95929.4
96819.6
98487.6
101293
107874
115169
112649
25362.2
55767.1
61835.9
65348.1
67559.1
68941
69573.4
95484.6
95875.1
96757.6
98411.5
101214
107784
115081
112484
25220.8
55718.5
61786.6
65341.6
67575.4
68959.2
69592.5
95401.2
95776.9
96641.1
98284.4
101031
107586
114869
112214
24952.5
55724.1
61739.2
65412
67639.2
69017.5
69653.7
95289.3
95632.5
96462.6
97923.6
102233
107049
114436
111752
25289.9
56044.2
63272.7
65592.5
67776.4
69130.8
69765
95143.5
95444.4
96178.7
98978.7
101862
107303
114979
111074
27532.2
59826
65166.6
67253.6
68077.7
69339.8
69932.3
94977.8
95263.5
97226.1
98776.9
102252
107404
114465
110142
28183.2
61114.2
67003.2
67946.4
69614.2
69671.7
70149.8
94892.3
95165
97135.2
98628.3
102420
107169
114020
109159
29914.2
63770.2
68940.9
69929.8
70040.6
69981
70374.5
94823
95085.6
97053.1
99235
102334
107011
113690
108194
40969.1
70388
72085.2
71824.1
70587.3
70208
70519
94815.7
95087.2
97021.7
99193.8
102299
106964
113579
107674
55359.6
78504.6
74687
72772
70813.3
70275.1
70601.8
94806.6
95095.8
97046
98538.4
102310
107042
113774
108248
52889.1
74104.6
73510.2
71710.8
70721.4
70146.2
70516.5
94896.3
95197
95932.8
98655
102102
107217
114194
109470
34354.4
66286.5
70418
69214.6
68861.8
69857.9
70339
94965.8
95309.5
96137.4
97605.2
101789
106356
113633
110628
28654
60186.2
64837.7
66478.4
68381.9
69562.6
70118.3
95009
95385.8
96252.9
97898
100648
106955
114212
111319
25797.6
56602.4
62331.4
65921.2
68029.1
69321.4
69914
95032.1
95424.5
96310.2
97969.6
100776
107300
114539
111783
25214.2
56056.2
62081.7
65613.6
67803.9
69148.7
69760.4
95032.1
95428.9
96322.4
97995.9
100807
107392
114680
112036
25117.9
55794.2
61949.2
65478.1
67682.4
69048.5
69670.3
90663.8
90526.9
90228.2
89776.4
89589.9
93424.9
97036.4
110310
4988.51
34568.4
48208.4
55529.8
60330.5
63133.2
64392.7
90612.3
90470.7
90166.3
89707
89527.4
93337.3
96946.8
110068
2331.03
34508.2
48151.1
55544.7
60355.3
63154.4
64412.8
90528.7
90375.8
90061.3
89622
89405.8
93155.7
96743.7
109850
2460.89
34587.4
48261.7
55687.2
60447.2
63230
64481.1
90420.2
90236.6
89903.3
89589.8
92084.5
92995.1
96379
109524
2875.9
34949.9
48450.3
56071.4
60656.9
63384.2
64611.8
90292.1
90086.2
89817.9
91490
91987.7
94658
97208.3
109177
4856.57
34982.4
49356.9
56977.7
61030.7
63668.8
64818.3
90155.7
90023.2
91233.6
91329.2
93067.5
95263.4
96843.3
108368
3113.58
36040.4
50425.4
57552.4
61976.7
64012.9
65078.3
90080.8
89957.9
91078
91235.6
93582
95028.9
96494
107657
6873.35
38852.5
52185.7
58860.7
62488.3
64333.2
65313.8
90012.6
89884.3
90977.1
92103.3
93472.5
94873.8
96243
106859
20233.5
49395.5
55915.9
60423.2
63043.2
64580
65465.5
89980.9
89858.5
90933.7
92057.6
93430.2
94824.8
96173.9
106815
106176
75293.2
59703.7
61449.5
63332.5
64650.3
65530.9
89951.4
89822
90952.2
91133.5
93443.6
94888.9
96310.8
107445
25062.9
55913.6
57948.9
60881.5
63214
64505.5
65423.6
89989.7
89783.2
89516.2
91093.4
92887.5
95051.4
96582
108056
12408.3
42040.7
54119.8
58966.3
61822.8
64152.6
65183.8
90026.7
89842.2
89503.8
89195.4
91700.7
92691
96014.9
108825
2549.22
36988.8
50293.7
56861.1
61200.1
63749.9
64899.8
90055.2
89902.1
89588.8
89155.1
88937.2
92635.6
96077.7
109083
3148.88
35335.9
48745.4
56080.7
60736
63443
64655.7
90070.7
89928.5
89623.7
89166.9
88991.1
92758.3
96313.5
109343
2535.68
34757
48287
55677.1
60463.9
63236.7
64480.5
90067.9
89930
89630.8
89181
88998.2
92843.8
96432.8
109474
2655.28
34444.2
48142.6
55500.8
60321.6
63124.1
64381.2
85740.5
85011.6
83492.2
81048
80528.4
79028.8
81317
7447.48
26870.4
41271
49769.7
55637
59134.7
60759.6
85692.2
84959.1
83433.8
80986.4
80460.3
78942.1
81223.9
2292.86
26566.8
41212.9
49782.6
55649.1
59146.1
60769.9
85621.6
84885.2
83346.1
80887
80390.9
78828.6
81044.7
2294.15
26430.2
41353.6
49869.7
55707.3
59205.9
60819.3
85542.1
84798.7
83229.4
80939.5
80558.3
78651.8
80755.3
2293.63
26655.8
40126.5
50181.7
55857.7
59332
60921.7
85469
84717.9
83272.9
83014.9
80992.9
80621.3
81292.4
2297.97
24532.4
39673.5
49754.6
56117.9
59560.8
61090.5
85394.5
84758.5
84682.2
83155.3
82194
81458
81094.6
2277.33
24143.7
39340.6
49906.3
56053
59751.4
61297
85334.7
84705.3
84598.3
83163.6
82878.1
81366
80929.8
2317
21776.5
39246.5
49949.6
56347.5
59939.2
61467.1
85261.7
84639.2
84519.9
83957
82911.7
81285.1
80818.2
2221.58
18918.3
40040.7
50502.4
56638.6
60110.8
61583.1
85212.4
84582.7
84461.7
83912.4
82866.6
81248.2
80792.4
2292.07
13385.8
41432.4
51187.1
56884.1
60180.2
61643.2
85148.1
84519.2
84429.8
83009
82738.3
81240.5
80823.8
2254.7
23414.7
42243.5
51339.3
56953
60117
61566.3
85101.3
84348.5
82909.8
82681.6
81913.6
81220.7
80879.6
2058.2
27416.2
41854.3
50994.3
56665.5
59905
61346.4
85065.8
84320.1
82743.5
80465
80176.2
78365.6
80050.2
2320.69
26567.5
41295.2
50637.6
56180.7
59540.7
61077
85051.3
84312.6
82772.6
80326.9
79839.2
78261.1
80407.5
2294.37
26738.5
41487.8
49991.3
55793.3
59254.2
60847.3
85043.3
84306.4
82777.1
80334.7
79852.3
78318.8
80558.6
2293.04
26515.2
41031.7
49657.1
55551.4
59054.3
60680.3
85031.5
84297.8
82772.5
80330.5
79816.3
78345.3
80629.6
2303.16
26343.1
40857
49470.2
55413.9
58944.2
60584.1
81691.4
80421.7
77748.3
73058.2
70362.7
62121.6
57363.9
3823.99
2294.09
26516.1
39748.7
48382.7
54238.3
57755.5
59430.7
81641.6
80365.6
77676.1
72962.1
70260.6
61975.6
57150.4
2495.51
2298.48
26391.2
39638.3
48363.2
54214.6
57739.3
59415.1
81572.4
80291.4
77571.7
72791.6
70122.3
61762.9
56957.4
2267.99
2297.83
22628.6
39719.8
48338.8
54198.7
57740.9
59411.2
81500.2
80223.9
77426.5
72678.6
69955.7
61484.3
56750.2
3077.82
2299.63
23169.5
36838.9
48400
54207.9
57773.3
59431.5
81447
80148.7
77302.4
75522.2
69563.4
64376.5
58560.7
2313.77
2296.52
20646
35317.5
46432.8
54247.6
57874.7
59497.7
81391.5
80087.4
79171.2
75335
71528.5
65663.2
58560
2404.71
2308.98
18859
33731.6
46135
53024.2
57922.8
59592.9
81321.3
80009.4
79083.1
75141.2
72327
65576.5
58494.1
2530.12
2261
11909.1
31989.2
44842.4
53042.9
57979.9
59662.9
81237.4
79934.2
78989.7
76497.1
72234.8
65538.4
58449.5
2235.79
2309.5
2711.36
31057.3
44347.4
53145.6
58063.3
59723.2
81168.2
79856.1
78922.5
76450.5
72189.5
65540.7
58560.7
4564.65
2204.5
9797.41
32071.6
44782.8
53334.9
58120.6
59767.2
81090.9
79788.4
78894.6
74979.3
72188.3
65511.9
58580.5
2349.64
2186.81
15827.1
33930.6
45783.9
53506.1
58121.1
59737.3
81000
79697.4
76843.4
75141.1
71259.5
65445.3
58410.7
3240.56
2846.9
20796.1
35197.2
46944.6
54494.7
58017.9
59595
80924.9
79642.4
76831.6
72085.1
69320.5
61006.5
56367.3
2760.13
2303.23
22038.5
37253.9
48469.8
54248.9
57772.2
59406.1
80887.4
79598.1
76866.3
72086.7
69384
61101.5
56363
2353.04
2297.98
22782.8
39409.6
48119
54020.3
57575.5
59251.7
80865.4
79577.6
76870.2
72145
69482.1
61224.5
56456.9
2388.3
2297.47
25845.6
38972
47895.8
53843
57423.6
59127.8
80847.8
79563.7
76866.4
72152.8
69499.3
61301.9
56542.2
2366.64
2296.26
25535.1
38702.8
47706
53726.3
57331
59050.2
79352.1
77692.4
74147.1
67828.4
56865.3
46064.3
19686.6
2313.21
2305.45
29810.7
42491.8
50545.6
55888.3
59051.4
60553
79291.2
77620.7
74038.4
67665
56587.4
45726.9
19625
2242.75
2303.55
29532.9
42314.1
50470.3
55816.7
58997.1
60503
79205.8
77525.2
73905
67503
56280.9
45199.9
19365.1
2231.67
2303.72
24063.7
42194.8
50370.6
55720
58922.8
60433.6
79112.2
77444.2
73741.6
67335.2
60583.2
44758.5
19335
2252.51
2304.98
24496.2
37928.7
50240.3
55597.6
58843.2
60363.6
79040.1
77376.5
73683.1
69756.7
60517.6
48663.2
25889.2
2283.7
3210.95
20787.9
35565.1
47099.2
55487.9
58819.6
60320.3
78975.8
77309.4
75156.2
69669.7
62683.9
50578.5
26775.3
2385.46
2298.42
18582.7
33192.2
46511.6
53365.8
58804.9
60319.8
78885.4
77211.2
75117.6
69575
63620.4
50615.2
26762.2
2359.64
2080.69
12212
30672.3
44276.4
53229.1
58811.5
60320.1
78785.5
77115.5
75035.9
70825.5
63531.1
50664.4
26738.2
3371.15
2302.45
4513.91
28944.7
43105.3
53248.7
58858
60346.9
78695.3
77012.9
74943.5
70739.3
63470.9
50730.2
27174.3
2287.13
2153.67
10211.1
30175.2
43493.9
53408.8
58889
60365.3
78608.9
76926.6
74863
69306.2
63420.7
50643.7
27476.9
2284.95
2230.99
16234.2
32535.5
45071.2
53591.2
58884.4
60355.5
78496.7
76821.8
73093.6
69314
62281.6
50342.1
26689.2
2313.17
2300.73
19756.1
34164.8
47107.6
55507.8
58796.1
60270.6
78422.3
76736.5
72997.5
66573.9
59959.6
44334.4
20769.5
2285.09
2313.96
21905.4
37721
49959.9
55383.6
58644.8
60172.5
78389.6
76686.8
73028.5
66589.2
55399.9
44409.8
19006.5
2244.33
2304.64
23688.7
41397.8
49792.2
55267.7
58540.8
60086.3
78369.5
76670.5
73037.6
66610.9
55527.9
44678.5
19040.2
2238.25
2304.21
28152.9
41072.6
49601.8
55139.8
58443.8
60009.8
78353.8
76659.3
73047.2
66640.2
55604.4
44881.2
19204.6
2273.82
2307.03
27099.5
40576.2
49391.1
55031.4
58370.1
59954.8
79340.5
77687.9
74129.4
67864.4
57009.2
44030.5
7556.16
2254.36
15917.4
39516
49609.1
56051.2
60245.5
62664.8
63809.6
79262.8
77592.7
73971.2
67565.6
56553.8
42768.8
6425.81
2234.19
13480.7
38887.8
49274.2
55882.6
60112.3
62566.3
63720.2
79155.9
77471.1
73789.4
67328.2
56677.2
41540.7
8198.2
2249.74
2335.21
30407.2
49045.5
55681.5
59920.1
62414.7
63580.7
79040
77366
73636.1
67217.8
58454.6
40781.8
9616.1
2270.73
6346.56
30624.4
43740.4
55497.6
59694.6
62239.8
63423.7
78953.9
77305.9
73670
68438.4
58236.1
43369.1
19331.4
2271.32
4438.22
25225.9
40636.7
51718.8
59571
62139.4
63302.9
78885.3
77276.7
74285.6
68331.4
59632.7
44748.9
20139.6
2301.2
6293.12
23231.2
37893.9
51286.5
57058.1
62164.1
63277.9
78777.3
77163.2
74217.6
68253.2
60274.4
44986.7
21494.8
2292.18
2283.21
15044.5
34809.7
48770.1
57072.6
62210.7
63278.1
78661.1
77040.7
74122.8
68979
60188.6
45373.6
21660.4
2252.71
2310.39
2388.28
31768.2
47279.6
57241.6
62284.1
63314
78544.5
76908.4
73997
68839
60035.8
45323.4
22365
8717.97
2332.98
8281.77
33480.8
47655.7
57334.4
62264.3
63297.6
78441.6
76790.8
73855.1
67809.3
59864.2
44830.2
22191.8
5334.61
2286.34
20211.6
36801.1
49420.9
57287.2
62176.9
63253.1
78306.1
76628.7
72903.5
67760.6
58963.4
44280
20103.1
2300.74
4376.89
23875.4
38546.7
51591.5
59460.7
62006.9
63152.3
78229.8
76516
72699.7
66187.1
57414
40333.3
18235.2
2283.95
2621.12
26329.9
42965.6
54938
59288.2
61889.9
63098.3
78203.7
76473.5
72703.9
66130.2
55413.5
40208.5
8374.88
2260.99
7185.27
29092.1
47751.5
54791.7
59231.7
61850.7
63074
78190.6
76465.5
72734.5
66186.8
55083.1
41395.5
6003.91
2233.15
12287.6
36261.3
47484.3
54646.3
59157.2
61806.9
63048.3
78181.1
76460.6
72757.8
66255.1
55147.4
41616
6110.91
2253.64
2305.33
32333.9
46625
54349.2
59032.8
61749.7
63016.7
81799.5
80663.8
78275.7
74411.6
66321.3
57543.8
27243.4
2336.02
41549.2
57146.3
61141
64692.5
66843.8
68066.9
68674.2
81703.2
80534.9
78039
73841.6
64767.9
54744.1
3007.31
2330.67
39300.8
56678.3
60672.9
64423.8
66642.6
67918.5
68540.4
81574.4
80383.5
77815.6
73384.7
66738.9
51346.1
17943.4
2375.26
22127.9
45490.8
60690.1
64071.1
66335.4
67681.1
68322
81434
80223.3
77549.4
73067.3
64894.5
49534.5
18363.1
2295
11239.7
44102.5
54633.7
63796.2
65979
67403.5
68067.5
81329.6
80119.9
77509.7
72476.6
64185.4
49470.8
23680.6
2369.01
9363.85
36505.6
51224.8
59957.8
65861.7
67232.9
67865.4
81250.4
80092.7
77010.1
72174.6
63998.4
49555.4
24372
2298.97
13637.8
35118.7
49026.8
60304.6
63584.5
67273.2
67831.9
81123.5
79954
76826.5
72003.5
63914.6
49499.1
23552.1
2253.82
7587.27
28355.2
48111.2
59193.1
64232.6
67394.3
67852.6
80988.6
79801.1
76671.5
71838.4
63621
50101.5
34875.5
2305.74
2246.78
9714.32
47063.8
58771.4
64935.1
67561
67924.4
80846.6
79638.6
76504.2
71600.8
63198.9
49140.1
32923.8
2292.51
2299.1
15080.3
47800.5
58933.6
64885.4
67465.9
67874.7
80728.3
79503.8
76343.5
71291.7
62959.2
48120.4
24385.7
2401.78
10141
31111.4
48991
59390.3
64182.7
67281.3
67788.9
80593.3
79322.8
76552.5
71320
62801.3
48140
23053.4
6079.78
11513.2
35036.3
49114.2
60077.3
65718.5
67049.7
67660.4
80522.8
79245.9
76424.3
71725.8
63038.5
47852.3
21703.3
2299.51
10289.4
37679.6
53399.1
63041.2
65449.2
66957.6
67653.9
80508
79244.1
76521.7
71851.2
64876.7
48801.9
17169.7
2352.02
18866.7
42590.3
58861.4
62931
65477.4
66995.9
67705.7
80504.6
79248.8
76565.9
72058.1
62689
52053.2
2618.16
2325.63
30636.6
52824.2
58361.1
62934.5
65503.4
67030.7
67748
80502.1
79255.4
76607.2
72205.3
63047.1
52235.6
8922.18
2327
6925.6
49167
57107.2
62529.1
65369.9
67001.9
67746.8
86122.3
85854.4
85436.1
86092.5
86621.2
97716
141678
144740
104276
84144.2
76973.5
75573.3
74749
74484.4
74450.1
86013
85696.2
85158.2
85490.5
85140.8
97513.5
145186
131524
100610
83182.3
76230.6
75169.5
74467.1
74275.9
74265
85864.1
85497
84858.1
84069.4
84605.5
79224.7
86989.7
80226.8
75111.8
73108.1
75194.9
74288.4
73965.3
73914.4
73943.9
85693.4
85264.6
84384.2
83264.6
78645.7
73267.4
59430.7
24041.4
47223.3
69938.5
70352.8
73471.7
73311.6
73450.6
73540.9
85564.1
85099.4
84186.7
80843.5
77576.2
68777
48092.3
14000
35424.7
60751.1
66870.3
70159.5
72821.6
73071.1
73169
85469.3
85024.6
82638.4
80447.2
75403.1
66357.4
43932.7
2187.25
35050.8
58207.4
65645.9
71029.8
71074
72861.4
72995.7
85330.2
84875.5
82400.6
80253
74444.2
65636.3
42008.6
2237.16
26658
56875.6
72583.4
73758.1
72335
72894.9
72937.5
85184
84711.5
82190.2
78965.8
73784.7
63843.3
37554.6
2269.79
2383.06
61032.5
85275.7
78941.9
73921.2
73095.1
73026.5
85028.1
84528.2
81969.2
78629.8
73004.7
61038.8
18496.4
2262.5
2324.75
59527.4
82752.5
78758.8
73760
73007.8
72984.8
84906.7
84386.2
81794.7
79261.3
72801.3
61707.1
34413
2321.61
27593.5
57100.7
71552.2
73393.6
72242.7
72890.6
72952.6
84778.5
84236.4
83132.4
79264.5
73666.4
63371.9
38815.1
2311.94
35046.4
56239.3
65264
70575.7
72728.8
72885.9
72945
84732.3
84223.5
83162.8
81765.9
76077.9
69746.2
44244.4
2286.82
32549.7
60743.1
68519.5
72742.4
72768.7
72968.7
73082.8
84742.7
84284.7
83446
82310.9
82335.6
72827.5
65211.3
69504.8
64290.2
68631.9
73451.7
73144.7
73067.9
73186.9
73275.1
84753.4
84326.7
83549.4
83404.6
82239.2
93175.6
134133
119252
95602.5
81868.3
74472.1
73892.1
73364.6
73380.5
73430.8
84756.5
84348.6
83606.8
83561.9
82597
92626.1
127329
128717
115564
87499.1
74866.5
74041.3
73391.2
73433.8
73483.2
91060.4
91592.8
92693.3
96399
102067
109445
134857
142139
118294
100540
90500.9
85480.7
82300.8
80869.7
80286.4
90970.2
91466.3
92547.4
96264.4
101952
110573
142578
150231
119973
100389
89965.9
85082.7
81967.4
80605.1
80053
90833.1
91236.5
92348.3
94752
100685
106837
134903
168063
130357
100952
88335.1
83728.4
81251.3
80085
79615.1
90659.3
90982.5
91804.4
93760.5
94763.4
104050
130664
184244
133042
98351.6
85964.1
81969.7
80113
79338.5
79012.4
90520.4
90781.8
91396.3
90888.9
93032
95927.1
106748
175913
136031
94149.4
81979.7
78827.2
78832.6
78528.3
78357.1
90413.9
90581.2
89575.8
90351.1
90830.7
92575.7
99430.9
155703
132199
84927.7
76989.8
76900.3
76680.1
77860.6
77864.1
90276.1
90415
89451
90106.3
89647.5
93361.5
105514
194110
96705
57432.2
82520.8
78863.8
76831.8
77623.9
77588
90136.5
90263.2
89234.9
88720
89043
92687.6
109287
70437.6
48920.2
16258.1
165405
92276.4
78379.8
77877.7
77632.7
89984.5
90089.6
89014
88327.5
88174
89460.6
84610.3
2402.58
33209.5
3314.11
119733
96156.7
78712.7
77865.6
77666.3
89867.4
89975.3
88814.4
89125.1
87716.9
88780.9
91925.5
109845
71883.2
70557
85101.4
81299.3
77715.9
77943.7
77829.1
89759.6
89956.7
90415.3
89371.7
89035.8
90035.5
97919.6
153939
100554
81291.2
78558.5
78531.2
78861.4
78363.6
78123.9
89727.2
89983.2
90651.9
92371.5
92575.3
99920.3
114674
204326
119547
90658.5
83133.5
81380.2
79613.2
78851.5
78532.8
89745.8
90069.9
91014.7
93130.4
98656.5
103431
131782
169921
125634
97460.7
86843.3
82757.7
80415.3
79372.1
78935.2
89751.6
90151.7
91044.2
94419
99437.4
107858
138695
143479
117782
99443
88564.2
84145.2
81034.1
79784.1
79240.6
89740.7
90155.2
91019.9
94290.4
98997.9
106290
133170
126608
124628
101353
89505.4
84826.3
81281.3
79961
79368.4
95248.2
96051.2
97298.2
100212
104585
104265
106397
111975
106936
101171
95601.3
91213.4
87858.2
86182.9
85376.2
95228.1
96034.5
97389.7
100637
105357
105826
109601
115558
108906
101860
95608.2
90963.2
87570.8
85914.1
85128.8
95187.9
95922.1
97583.3
100477
105142
108753
113858
124836
112997
103908
94505.1
89851.3
86862.6
85321.2
84630.9
95102.2
95809.7
97395.7
100493
102859
110584
121572
137117
122804
103641
93448.4
87817.6
85462.4
84387.7
83886
95024.6
95713.9
97320.8
98287.1
102863
109364
122838
148321
126421
103255
89556.4
84362.5
83551.8
83173.9
82972
94948.3
95552.2
95827.4
98271.9
101610
109221
121849
114147
123040
90677.8
78477.9
78336.5
80147.8
81929.7
82091.3
94852.8
95448.6
95775.4
98430.4
101338
112124
128779
97529.5
106647
21769.7
37110
67105.5
77020.1
80959.5
81427.6
94737.1
95312
95639.7
97099.9
101410
112589
124965
91369.2
55794
4900.72
2090.03
50432.3
75668.4
80739.2
81254.6
94586.4
95139.3
95438.2
96775.7
100838
112056
139231
182739
2311.46
2277.29
2034.25
57046
76943.9
81136.2
81462.4
94446.9
94977.4
95210.1
97450.1
99936
109247
129318
150897
93912.4
54274.4
58005
74117.6
79420
81940
81991.5
94337.7
94981
96460.2
97275.4
100218
107901
126172
159597
119977
91271.7
82049.5
82192.2
83374.4
82900.8
82669.1
94265.4
94935.5
96443.8
99484.5
101748
110389
124932
151651
126143
101158
90493.1
87199.6
84900.3
83847.2
83360.9
94215.4
94906.7
96491.5
99309.3
103941
108783
116657
129392
113335
102319
93250.8
88973.8
86041.7
84603.1
83935.9
94144.8
94903.6
96182.7
99409.3
103932
104756
110373
113982
107717
100532
94270
90098.7
86688.8
85121.9
84335.5
94079.6
94826.6
95992.9
98916.9
103158
102995
109651
113345
108326
99305.9
94471.1
90541.5
86931.2
85346.7
84508.1
98070.7
98709.3
99441.7
100576
102905
102139
100924
105082
101210
98960.5
96377.1
93705.9
91357.8
90076.9
89348.5
98129.3
98797.2
99643.9
101135
103684
103133
102513
104908
102451
99721.7
96643.3
93643.9
91179.3
89870.4
89141.8
98234.1
98867.7
100110
101875
104532
105972
108707
112267
107942
102019
96550.5
93147.4
90730.6
89379.8
88708.8
98308.1
99001.6
100391
102849