/*--------------------------------*- C++ -*----------------------------------*\
| =========                 |                                                 |
| \\      /  F ield         | OpenFOAM: The Open Source CFD Toolbox           |
|  \\    /   O peration     | Version:  v2012                                 |
|   \\  /    A nd           | Website:  www.openfoam.com                      |
|    \\/     M anipulation  |                                                 |
\*---------------------------------------------------------------------------*/
FoamFile
{
    version     2.0;
    format      ascii;
    class       volScalarField;
    location    "0.043";
    object      p_rgh;
}
// * * * * * * * * * * * * * * * * * * * * * * * * * * * * * * * * * * * * * //

dimensions      [1 -1 -2 0 0 0 0];


internalField   nonuniform List<scalar> 
449343
(
107151
107281
107495
107701
107788
107529
106742
105355
103421
101150
98832.2
96738.5
95056.9
93894
93302.2
107155
107285
107501
107708
107795
107539
106754
105370
103441
101174
98859.3
96766.1
95083.6
93919.5
93326.9
107162
107293
107511
107721
107810
107556
106775
105398
103478
101221
98911.9
96819.8
95135.2
93968.3
93374.1
107172
107305
107526
107739
107830
107579
106805
105437
103530
101286
98986.1
96895.6
95207.5
94036.3
93439.5
107184
107319
107543
107761
107854
107607
106841
105484
103594
101364
99075.6
96986.4
95293.5
94116.5
93516.2
107196
107333
107561
107783
107880
107638
106881
105538
103662
101450
99170.1
97081.6
95382.7
94199.3
93595.1
107206
107345
107576
107803
107902
107669
106921
105587
103726
101528
99253.6
97166.6
95462.2
94273
93665.6
107213
107353
107586
107817
107920
107694
106951
105626
103772
101584
99313.4
97226.2
95519.1
94327
93717.8
107215
107356
107591
107824
107930
107709
106973
105652
103801
101609
99338.1
97251.4
95545.8
94354.4
93745.6
107214
107354
107589
107822
107931
107713
106978
105656
103799
101599
99326.4
97239.8
95539.1
94353.4
93747.5
107209
107348
107582
107815
107924
107708
106971
105643
103777
101567
99288.5
97203.3
95509.6
94330.3
93728.2
107203
107341
107573
107805
107913
107697
106957
105621
103744
101522
99236.9
97153.1
95466.5
94294.4
93696.4
107196
107334
107564
107794
107901
107684
106939
105596
103708
101477
99185.1
97102.7
95422.1
94256.1
93661.7
107191
107328
107557
107785
107891
107672
106923
105575
103679
101440
99144.1
97063
95386.7
94225
93633.1
107189
107325
107553
107780
107885
107665
106914
105562
103662
101419
99121.8
97041.4
95367.3
94207.7
93617.1
107005
107181
107494
107851
108108
108068
107411
105956
103766
101156
98542.4
96254.5
94467.5
93254.5
92643.7
107008
107185
107499
107858
108117
108078
107422
105972
103788
101184
98573.5
96285.2
94496.2
93281.4
92669.5
107015
107193
107510
107872
108133
108095
107443
106001
103829
101239
98635.4
96345.9
94552.3
93333.5
92719.4
107024
107205
107525
107892
108156
108116
107468
106034
103884
101316
98725.3
96433.7
94632.3
93406.7
92789
107035
107219
107544
107917
108184
108141
107503
106086
103946
101412
98838.7
96542.6
94729.4
93494.3
92871.6
107047
107233
107564
107943
108215
108176
107543
106146
104034
101520
98960.8
96660.1
94832.6
93585.8
92957.3
107056
107245
107581
107965
108238
108216
107590
106206
104116
101623
99079.8
96768.1
94925.5
93668.5
93034.5
107062
107253
107591
107980
108257
108245
107624
106205
104168
101688
99153.8
96839.4
94990.2
93728.4
93091.5
107064
107255
107595
107985
108266
108260
107650
106282
104207
101718
99178.1
96865
95018.4
93757.4
93121
107062
107251
107589
107980
108268
108258
107652
106283
104196
101694
99141.8
96840.3
95006.3
93753.1
93120.8
107057
107245
107580
107968
108256
108249
107645
106265
104158
101644
99079.5
96783.7
94965.1
93723.7
93097.1
107050
107236
107568
107953
108239
108240
107629
106235
104120
101577
99000.7
96713.3
94909.7
93680
93059.4
107044
107228
107557
107939
108224
108227
107611
106210
104075
101514
98928.1
96646.8
94854.9
93634.7
93019.2
107039
107222
107549
107928
108211
108211
107593
106183
104037
101463
98873.2
96596.5
94812.3
93598.5
92986.5
107036
107219
107545
107922
108204
108202
107582
106168
104016
101436
98844.4
96569.8
94789.3
93578.7
92968.3
106631
106913
107447
108160
108877
109380
109120
107492
104618
101117
97778.8
95052.4
93038.3
91720.4
91070.7
106634
106916
107453
108168
108888
109391
109131
107510
104645
101155
97818.7
95089.4
93071.3
91750.6
91099.4
106638
106923
107464
108186
108910
109413
109148
107545
104695
101232
97903.7
95165.4
93137.1
91809.7
91155.3
106645
106934
107481
108212
108943
109432
109153
107581
104742
101341
98035.3
95281.5
93233.9
91894.6
91234.5
106654
106947
107504
108246
108981
109445
109140
107583
104792
101501
98208
95431
93356.2
91998.7
91330.3
106664
106962
107530
108281
109028
109477
109171
107661
104924
101677
98417.7
95602.2
93490.2
92110.6
91431.7
106672
106974
107549
108315
109044
109542
109231
107748
105054
101824
98668.3
95767.2
93617.5
92213.9
91524.4
106677
106982
107560
108332
109066
109597
109308
107765
105139
101917
98770.4
95865.5
93702.2
92288.6
91593
106677
106981
107560
108332
109067
109602
109310
107856
105190
101955
98802.8
95897.2
93735.4
92321.8
91626.9
106674
106976
107551
108315
109080
109576
109309
107848
105160
101914
98671.3
95840.3
93706.8
92310.8
91623
106668
106965
107533
108291
109046
109574
109310
107811
105078
101805
98522.1
95734.3
93640.4
92266.4
91588.8
106660
106954
107514
108264
109016
109571
109337
107821
105036
101665
98373.7
95616.3
93556.5
92204.9
91537.6
106654
106945
107499
108242
108989
109551
109327
107779
104980
101553
98244.5
95510.7
93477.8
92143.6
91484.7
106650
106939
107489
108227
108974
109521
109306
107737
104920
101467
98154.5
95435.5
93418.8
92095.7
91442.3
106647
106936
107484
108219
108962
109509
109292
107715
104887
101424
98110.6
95397.4
93387.7
92069.8
91419.1
105903
106338
107206
108489
110055
111591
112480
110515
106136
100765
96202.6
92877
90603.5
89187.5
88510.8
105903
106339
107210
108497
110068
111604
112484
110535
106169
100814
96253.4
92920.7
90641.1
89221.6
88543.1
105903
106343
107220
108519
110101
111638
112501
110589
106253
100944
96372.7
93014.2
90717.8
89289.6
88606.8
105905
106349
107238
108556
110149
111688
112360
110654
106256
101167
96582.5
93164.9
90834.5
89389.3
88699
105908
106360
107265
108604
110222
111672
111662
110453
107142
101518
96877.6
93380
90989.1
89515.6
88812.9
105913
106373
107304
108691
110331
110947
111598
110519
107361
102912
97275.2
93641.4
91170
89654.7
88936.4
105917
106385
107332
108743
109710
111033
111642
110610
107517
103155
98700.7
93885.1
91346.1
89788.3
89051.6
105918
106391
107346
108766
109729
111099
111740
110629
107656
103337
98862.7
94029.2
91472.1
89889.1
89136.9
105917
106388
107340
108760
109735
111107
111751
110762
107740
103418
98958.6
94082.1
91511.7
89930
89181.6
105914
106378
107319
108723
110390
111063
111753
110779
107721
103380
97701.1
93994.2
91466.1
89911.1
89172.7
105908
106365
107283
108644
110297
111806
111845
110753
107619
101965
97339.4
93797.8
91357.6
89845.8
89123.3
105903
106353
107256
108597
110227
111822
112572
110957
106663
101613
97037.1
93595.5
91231.3
89757.8
89052
105899
106345
107236
108559
110176
111763
112684
110861
106597
101343
96793.7
93430.5
91117.6
89672.5
88979.8
105896
106339
107224
108536
110139
111718
112658
110784
106483
101178
96645
93319.5
91035
89607.2
88923.1
105895
106337
107219
108526
110124
111699
112647
110752
106433
101110
96578.2
93265.2
90992.4
89572.4
88892.3
104626
105228
106479
108479
111298
114821
118605
115866
108431
99318.2
93102.2
89324.1
86968.1
85590.5
84961.3
104622
105225
106478
108484
111309
114836
118600
115879
108474
99384.2
93160.3
89369.1
87007.5
85627.3
84996.7
104614
105220
106481
108504
111359
114898
118630
115930
108629
99563.4
93304.5
89467.3
87089.1
85701.9
85067.2
104603
105215
106492
108564
111513
115079
116351
116068
110309
100158
93643.9
89649.7
87217.4
85813.7
85171.1
104593
105211
106515
108632
111625
113620
116370
116097
110591
102671
94089.9
89904.9
87400.3
85959.5
85303.1
104585
105218
106569
108841
110786
113839
116453
116109
110769
103257
96571.4
90306.2
87615
86131.7
85450.6
104575
105211
106570
108267
110867
113977
115612
115595
111340
104551
97144.8
92362.7
87814.5
86284.7
85589.5
104573
105216
106632
108269
110923
114054
115718
115748
111643
104933
97564.2
92672.9
88088.6
86413
85703.6
104569
105207
106571
108262
110923
114072
115751
115869
111788
105120
97704
92789.1
88061.3
86476.5
85755.2
104572
105209
106570
108861
110838
113980
115798
115874
111746
104126
97405.2
90850.7
88038.3
86467.9
85746.8
104573
105196
106513
108654
111689
113799
116611
116453
111218
103694
94824.1
90516.3
87893.4
86374.3
85679.7
104576
105193
106484
108580
111567
115206
116557
116444
111011
100820
94283.5
90221.5
87714.9
86255.7
85584.4
104579
105192
106467
108513
111402
115003
118798
116282
109045
100070
93834.7
89975.8
87561.5
86141.9
85489
104582
105192
106459
108487
111343
114920
118753
116153
108827
99810.5
93619.4
89829.2
87453.2
86056.1
85414.9
104584
105192
106456
108479
111328
114894
118749
116100
108751
99703.1
93525.6
89758.4
87397.9
86011
85375.1
102563
103281
104836
107519
111824
118637
124183
129411
115582
94406.6
87271.8
83846.2
81886.9
80868.8
80442.3
102551
103269
104825
107513
111830
118644
124176
129409
115599
94459.8
87318.9
83881.2
81923.1
80905.8
80479.1
102528
103247
104806
107497
111841
118684
124167
129411
115631
94538
87384.8
83933.7
81995.9
80981.3
80553.2
102496
103220
104791
107534
112175
116515
124241
129528
115767
99260.1
87698.5
84016.3
82109.6
81097.9
80664.7
102457
103178
104752
107577
110976
116776
124502
127182
117321
100269
91255.9
84225.1
82247.4
81243.7
80809.6
102425
103137
104786
107181
111072
115864
122773
126226
117642
103048
91940.7
86974.9
82478.3
81420.6
80977.5
102392
103093
104769
107215
111206
115902
121924
126389
118595
104647
94210.2
87517.5
82697
81585.8
81136.9
102370
103055
104784
107276
110600
115443
122012
126629
119190
105453
94880.4
88008.5
84878.7
81712.9
81268.8
102376
103077
104758
107246
110601
115933
122083
126848
119661
105991
95272.1
88193.4
83096.4
81851.3
81349.9
102393
103109
104765
107158
111191
115971
122075
126876
119599
105920
95164.1
88100.4
83096.5
81860.7
81344.9
102409
103134
104718
107560
110979
116931
122876
127676
118598
104142
92816.2
85148.1
82912.3
81760.2
81259
102433
103161
104744
107505
112173
116615
124476
129956
116583
100524
88596.4
84772.8
82726.1
81618.5
81137.8
102452
103177
104747
107456
111825
118714
124311
129718
116220
95179.3
88037
84543.7
82542.2
81474
81017.2
102466
103190
104757
107463
111805
118666
124265
129635
115996
94950.8
87844.3
84398.1
82412.8
81367.8
80924.8
102473
103197
104764
107464
111796
118658
124270
129602
115898
94818.3
87732.5
84315.4
82345.6
81312
80875.3
99503.1
100188
101728
104560
109440
116186
132574
162422
119147
86352.8
76724.1
75727.5
75212.8
75112.6
75113.6
99481
100164
101700
104526
109405
116160
132525
162382
119131
86361.9
76735.9
75740.9
75243.1
75148.2
75150.7
99436.8
100112
101634
104423
109257
116085
132370
162261
119080
86398.1
76654.1
75737.6
75300
75217.9
75225.5
99373.4
100039
101542
104179
108620
116376
132267
162011
118969
86661.4
80197.8
75575.3
75378.4
75326.6
75340.5
99286.9
99925
101326
104222
108579
115432
129231
161713
120195
90984.1
80321.3
78109.6
75422.9
75467.7
75493.4
99195.3
99753.9
101770
104234
108295
115311
127700
156551
125399
93655.7
83242
78523.4
77485.1
75649.7
75682.1
99142.1
99691.2
101743
104195
108274
114845
127472
156314
126419
95022.1
85561.8
80790.6
77824.9
75895.8
75877.4
99091.2
99641.8
101780
104199
108244
114776
127353
156308
128477
97301.2
87021.4
81653.2
78318.5
76105.8
76007.8
99114.8
99663.7
101726
104209
108260
114777
127365
156506
130705
99192.8
88066.3
82178.5
78512.9
76214.9
76136.2
99139.8
99702.1
101732
104152
108277
114843
127511
156708
129897
98503.5
87759.2
82035.6
78481.8
76178.5
76111.3
99201.4
99840.4
101247
104150
108499
115355
127757
156869
127426
96285.6
85324.8
79676.7
76262.9
76075.9
76002.8
99263.8
99932.1
101440
104088
108425
116206
129311
161958
120495
92674.4
81626.4
76521
76100.7
75907.8
75854.6
99307.5
99986.4
101515
104314
109161
116008
132306
162219
119750
87387.9
77389.9
76428.3
75896.6
75739.4
75708.2
99337.6
100024
101567
104406
109297
116071
132439
162400
119521
86947.7
77298.2
76285.5
75748.1
75616
75597.4
99352.4
100042
101589
104433
109325
116091
132526
162478
119410
86746.9
77186
76197.4
75669
75549.4
75538
95397
95792.1
96682.2
98350.3
101156
107732
115024
112503
25216.3
55624.8
61698.6
65210.8
67421.8
68803.6
69436
95366.8
95757.4
96639.9
98293.8
101096
107661
114956
112358
25094.5
55595.9
61668.9
65223.9
67457.7
68841.4
69474.8
95303.1
95678.8
96543
98186.3
100933
107483
114763
112108
24845.8
55621.1
61641.1
65313.9
67541.1
68919.4
69555.6
95210.8
95554
96384.1
97845.2
102150
106966
114350
111665
25202.9
55960.8
63189.3
65514
67697.9
69052.3
69686.6
95084.7
95385.6
96119.8
98914.9
101799
107237
114911
111006
27464.8
59758.6
65100.4
67189.9
68018.9
69280.9
69873.4
94938.6
95224.3
97181.9
98732.8
102205
107356
114417
110094
28135.4
61066.4
66955.4
67902.2
69570.1
69632.4
70110.6
94872.6
95145.4
97110.6
98603.8
102392
107141
113992
109131
29886
63742
68912.6
69902.8
70016.1
69961.4
70354.9
94823
95085.6
97048.2
99227.6
102326
107002
113682
108185
40960.5
70379.4
72076.6
71815.5
70582.4
70208
70519
94835.3
95106.8
97036.4
99206
102310
106975
113590
107685
55370.7
78515.7
74698
72783.1
70828
70294.8
70621.4
94845.8
95135
97080.3
98572.7
102340
107073
113805
108278
52919.8
74135.3
73540.9
71742.7
70755.8
70185.4
70555.8
94955.2
95255.9
95991.7
98709
102154
107267
114244
109521
34404.7
66336.8
70468.2
69268.5
68920.7
69916.7
70397.9
95044.3
95387.9
96215.9
97683.6
101863
106430
113704
110698
28723.9
60257.3
64911.3
66556.9
68460.3
69641.1
70196.7
95107.1
95483.9
96351
97996.1
100746
107048
114303
111409
25887.1
56695.6
62429.5
66019.3
68127.2
69419.5
70012.1
95149.8
95542.2
96428
98087.3
100893
107413
114649
111893
25323.3
56169
62199.4
65731.4
67921.7
69266.4
69878.2
95169.5
95566.3
96459.7
98133.2
100945
107524
114810
112164
25246.6
55926.7
62086.5
65615.4
67819.7
69185.8
69807.6
90526.5
90389.5
90090.9
89639.1
89452.5
93282.7
96891.7
110163
4842.61
34426.1
48071.1
55392.4
60193.2
62995.8
64255.3
90494.6
90352.9
90048.6
89589.3
89409.6
93214.6
96821.8
109941
2208.57
34385.5
48033.4
55426.9
60237.6
63036.6
64295.1
90430.6
90277.7
89963.2
89523.9
89307.7
93052.7
96638.2
109743
2355.55
34484.4
48163.6
55589.1
60349.1
63131.9
64383
90341.7
90158.2
89824.8
89511.3
92001.2
92911.7
96293.1
109437
2789.06
34866.5
48366.9
55992.9
60578.4
63305.7
64533.3
90233.3
90027.4
89759
91426.2
91923.9
94591.8
97140.9
109109
4789.15
34915
49290.7
56913.9
60971.8
63609.9
64759.5
90116.5
89984
91189.4
91285.1
93020.9
95215.6
96795.5
108320
3065.84
35992.6
50377.6
57508.3
61932.5
63973.7
65039.1
90061.2
89938.3
91053.5
91211.1
93553.8
95000.7
96465.8
107628
6845.15
38824.3
52157.5
58833.7
62463.7
64313.6
65294.2
90012.6
89884.3
90972.2
92095.9
93463.9
94865.2
96234.4
106850
20225
49386.9
55907.3
60414.6
63038.3
64580
65465.5
90000.5
89878.1
90948.4
92069.9
93441.3
94835.8
96184.9
106826
106187
75304.2
59714.8
61460.6
63347.2
64669.9
65550.5
89990.6
89861.2
90986.6
91167.8
93474.3
94919.5
96341.5
107475
25093.6
55944.3
57979.6
60913.4
63248.3
64544.7
65462.9
90048.5
89842
89575.1
91147.3
92939
95101.7
96632.3
108105
12458.6
42091
54170.1
59020.3
61881.7
64211.4
65242.7
90105.2
89920.6
89582.3
89273.9
91774.3
92764.6
96086
108895
2618.88
37059.9
50367.2
56939.6
61278.6
63828.4
64978.3
90153.3
90000.2
89686.9
89253.2
89035.3
92728.8
96168.4
109171
3238.23
35429.1
48843.5
56178.8
60834.1
63541.1
64753.8
90188.5
90046.3
89741.5
89284.6
89108.8
92871.1
96423.8
109452
2643.91
34869.8
48404.7
55794.8
60581.7
63354.5
64598.3
90205.2
90067.3
89768.1
89318.3
89135.6
92976.3
96562.8
109602
2783.53
34576.6
48279.9
55638.2
60458.9
63261.5
64518.6
85603.1
84874.2
83354.9
80910.6
80386.1
78886.5
81172.3
7302.78
26728.1
41133.6
49632.4
55499.7
58997.4
60622.2
85574.5
84841.4
83316
80868.7
80337.7
78819.5
81098.9
2199.14
26444.2
41095.2
49664.9
55531.4
59028.4
60652.2
85523.5
84787.1
83248
80788.9
80287.9
78725.6
80939.3
2210.43
26327.1
41255.5
49771.6
55609.2
59107.8
60721.2
85463.7
84720.2
83151
80861
80474.9
78568.4
80669.5
2220.45
26572.4
40043.2
50103.2
55779.2
59253.5
60843.2
85410.2
84659.1
83214
82951.1
80929.1
80555.1
81225
2245.42
24465
39607.3
49690.8
56059
59502
61031.6
85355.3
84719.3
84638
83111.1
82147.4
81410.1
81046.8
2233.05
24095.9
39292.8
49862.1
56008.8
59712.2
61257.7
85315
84685.7
84573.7
83139.1
82849.9
81337.8
80901.6
2316.1
21748.3
39218.3
49922.6
56323
59919.6
61447.5
85261.7
84639.2
84515
83949.7
82903.1
81276.5
80809.6
2221.18
18909.7
40032.2
50493.8
56633.7
60110.8
61583.1
85232
84602.4
84476.4
83924.7
82877.6
81259.2
80803.4
2298.98
13396.8
41443.5
51198.2
56898.8
60199.8
61662.8
85187.3
84558.4
84464.1
83043.4
82768.9
81271.2
80854.5
2255.17
23445.4
42274.2
51371.2
56987.3
60156.2
61605.6
85160.1
84407.4
82968.7
82735.5
81965.1
81271
80929.9
2108.47
27466.4
41904.6
51048.3
56724.3
59963.8
61405.2
85144.2
84398.6
82822
80543.5
80249.8
78439.1
80121.4
2389.82
26638.6
41368.7
50716.1
56259.1
59619.2
61155.5
85149.4
84410.7
82870.7
80425
79932.4
78354.3
80498.3
2365.8
26831.7
41585.9
50089.4
55891.4
59352.3
60945.4
85161.1
84424.1
82894.8
80452.4
79965.1
78431.6
80669
2380.89
26628
41149.5
49774.8
55669.1
59172
60798
85168.8
84435.2
82909.8
80467.8
79948.7
78477.7
80759.6
2420.57
26475.5
40994.4
49607.5
55551.3
59081.5
60721.5
81554.1
80284.3
77610.9
72920.9
70220.4
61979.3
57219.2
3677.45
2164.48
26378.7
39611.4
48245.3
54101
57618.2
59293.3
81523.9
80247.8
77558.3
72844.4
70138
61852.9
57025.4
2433.48
2197.98
26273.5
39520.6
48245.5
54096.9
57621.6
59297.4
81474.3
80193.3
77473.6
72693.5
70019.3
61659.9
56851.9
2265.94
2211.89
22525.6
39621.7
48240.7
54100.6
57642.8
59313.1
81421.7
80145.4
77348
72600.1
69872.3
61400.9
56664.4
3001.05
2230.17
23086.1
36755.5
48321.5
54129.4
57694.8
59353
81388.2
80089.8
77243.5
75458.4
69499.6
64310.3
58493.3
2313.64
2244.41
20578.6
35251.3
46369
54188.7
57815.9
59438.8
81352.3
80048.2
79127.1
75290.9
71481.9
65615.4
58512.2
2389.66
2272.01
18811.2
33683.8
46090.9
52980.1
57883.5
59553.7
81301.7
79989.8
79058.6
75116.7
72298.8
65548.3
58465.9
2507.4
2256.78
11880.9
31961
44815.4
53018.4
57960.3
59643.2
81237.4
79934.2
78984.8
76489.7
72226.2
65529.8
58440.9
2228.57
2301.6
2702.88
31048.7
44338.9
53140.7
58063.3
59723.2
81187.8
79875.7
78937.2
76462.8
72200.5
65551.8
58571.7
4575.07
2204.68
9808.45
32082.6
44793.8
53349.6
58140.2
59786.8
81130.2
79827.6
78928.9
75013.6
72218.9
65542.5
58611.2
2351.74
2187.11
15857.7
33961.2
45815.8
53540.5
58160.4
59776.6
81058.9
79756.2
76902.3
75195
71311
65495.5
58460.9
3288.48
2896.87
20846.3
35247.5
46998.5
54553.6
58076.8
59653.8
81003.4
79720.9
76910.1
72163.6
69394.1
61080.1
56438.4
2798.05
2367.36
22109.6
37327.5
48548.3
54327.3
57850.7
59484.6
80985.5
79696.2
76964.4
72184.8
69477.2
61194.7
56453.7
2360.84
2376.26
22876
39507.7
48217.1
54118.4
57673.6
59349.8
80983.2
79695.3
76987.9
72262.7
69594.9
61337.3
56567.2
2407.41
2391.55
25963.3
39089.7
48013.5
53960.7
57541.3
59245.5
80985.2
79701.1
77003.7
72290.2
69631.7
61434.4
56672.2
2384.63
2411.91
25672.4
38840.1
47843.4
53863.6
57468.3
59187.5
79214.8
77555.1
74009.7
67691
56727.9
45922
19541.9
2234.97
2171.15
29673.3
42354.5
50408.2
55750.9
58914.1
60415.7
79173.5
77503
73920.7
67547.3
56469.7
45604.3
19499.9
2242.66
2195.11
29415.2
42196.4
50352.6
55699
58879.4
60385.3
79107.7
77427.1
73806.9
67404.9
56182.8
45096.9
19259.7
2231.57
2214.3
23960.7
42096.7
50272.5
55621.9
58824.7
60335.5
79033.7
77365.7
73663.1
67256.7
60499.8
44675.1
19249.2
2252.34
2227.77
24412.8
37845.3
50161.8
55519.1
58764.7
60285.1
78981.2
77317.7
73624.2
69692.9
60453.9
48597
25821.7
2283.12
3143.51
20720.4
35498.8
47035.4
55429
58760.8
60261.5
78936.6
77270.2
75112
69625.5
62637.3
50530.7
26727.4
2383.8
2277.59
18534.9
33144.4
46467.5
53321.7
58765.6
60280.5
78865.8
77191.6
75093.1
69550.5
63592.1
50587
26734
2345.3
2079.74
12183.8
30644.1
44249.4
53204.6
58791.9
60300.5
78785.5
77115.5
75031
70818.1
63522.6
50655.8
26729.6
3363.66
2301.24
4505.33
28936.2
43096.7
53243.8
58858
60346.9
78714.9
77032.5
74958.2
70751.5
63482
50741.3
27185.3
2297.83
2153.81
10222.1
30186.2
43504.9
53423.6
58908.6
60384.9
78648.1
76965.8
74897.3
69340.5
63451.3
50674.4
27507.6
2286.19
2231.48
16264.9
32566.2
45103.1
53625.5
58923.6
60394.8
78555.6
76880.7
73152.5
69367.9
62333.1
50392.3
26739.4
2315.2
2315.98
19806.4
34215
47161.5
55566.7
58854.9
60329.5
78500.7
76815
73076
66652.3
60033.2
44408
20840.7
2285.28
2381.07
21976.5
37794.6
50038.4
55462.1
58723.3
60251
78487.7
76784.9
73126.6
66687.3
55498
44503
19097.2
2244.48
2387.68
23781.9
41495.9
49890.3
55365.8
58638.9
60184.4
78487.2
76788.3
73155.4
66728.6
55645.6
44791.3
19150.5
2238.41
2403.87
28270.6
41190.3
49719.5
55257.5
58561.6
60127.5
78491.2
76796.7
73184.5
66777.5
55741.7
45013.6
19334.6
2274.27
2431.11
27236.9
40713.5
49528.4
55168.7
58507.4
60092.1
79203.2
77550.5
73992
67727.1
56871.8
43893.2
7413.92
2252.78
15780.1
39378.7
49471.8
55913.9
60108.1
62527.4
63672.3
79145
77475
73853.4
67447.9
56436.1
42651.1
6303.19
2234.03
13363
38770.1
49156.4
55764.9
59994.5
62448.6
63602.5
79057.8
77373
73691.3
67230.1
56579.1
41437.7
8095.19
2249.48
2236.67
30304.2
48947.4
55583.4
59822
62316.6
63482.6
78961.6
77287.5
73557.6
67139.3
58371.2
40698.4
9532.72
2270.52
6260.73
30541
43657
55419.1
59616.1
62161.4
63345.2
78895
77247.1
73611.1
68374.7
58172.3
43302.9
19264
2271.1
4370.8
25158.5
40570.5
51655
59512.1
62080.5
63244
78846.1
77237.4
74241.5
68287.2
59586.1
44701.1
20091.7
2300.95
6245.3
23183.4
37846.1
51242.4
57013.9
62124.8
63238.6
78757.7
77143.6
74193.1
68228.7
60246.2
44958.5
21466.6
2279.89
2277.4
15016.3
34781.5
48743.1
57048
62191
63258.5
78661.1
77040.7
74117.9
68971.6
60180
45365
21651.8
2252.64
2305.11
2388.11
31759.7
47271.1
57236.7
62284.1
63314
78564.1
76928
74011.7
68851.2
60046.9
45334.4
22376
8729
2333.95
8292.8
33491.9
47666.8
57349.1
62283.9
63317.2
78480.9
76830.1
73889.5
67843.6
59894.9
44860.9
22222.4
5365.27
2289.79
20242.2
36831.7
49452.8
57321.6
62216.1
63292.3
78364.9
76687.5
72962.4
67814.5
59014.9
44330.3
20153.3
2301.06
4427.16
23925.7
38596.9
51645.5
59519.6
62065.8
63211.1
78308.3
76594.5
72778.2
66265.6
57487.6
40406.9
18306.4
2284.16
2690.71
26401
43039.2
55016.5
59366.7
61968.4
63176.8
78301.8
76571.6
72802
66228.3
55511.6
40301.7
8468.08
2261.25
7278.45
29185.3
47849.6
54889.8
59329.8
61948.8
63172.1
78308.4
76583.3
72852.2
66304.5
55200.8
41513.2
6116.72
2233.4
12405.3
36379.1
47602.1
54764
59274.9
61924.6
63166
78318.4
76598
72895.2
66392.5
55284.8
41753.3
6243.35
2254.07
2423.33
32471.2
46762.3
54486.6
59170.2
61887.1
63154
81662.2
80526.4
78138.4
74274.3
66183.9
57406.5
27106.1
2253.34
41411.9
57009
61003.7
64555.2
66706.5
67929.5
68536.9
81585.5
80417.2
77921.3
73723.8
64650.2
54626.3
2891.3
2277.78
39183.1
56560.6
60555.1
64306
66524.9
67800.8
68422.7
81476.3
80285.4
77717.5
73286.6
66640.8
51243.1
17840.4
2322.11
22024.9
45387.8
60592
63973
66237.3
67583
68223.9
81355.5
80144.8
77471
72988.8
64811.1
49451.1
18279.7
2293.46
11153.9
44019.2
54550.3
63717.7
65900.5
67325
67989.1
81270.8
80061
77450.9
72412.8
64121.6
49404.6
23613.2
2303.58
9296.41
36438.1
51158.6
59894
65802.8
67174
67806.5
81211.2
80053.5
76966
72130.5
63951.8
49507.6
24324.2
2275.22
13590
35070.9
48979
60260.5
63540.3
67234
67792.7
81103.9
79934.4
76802
71979
63886.4
49470.9
23523.9
2253.09
7559.06
28327
48083
59166.2
64208.1
67374.7
67833
80988.6
79801.1
76666.6
71831.1
63612.4
50092.9
34866.9
2305.7
2246.57
9705.74
47055.2
58762.9
64930.2
67561
67924.4
80866.2
79658.2
76518.9
71613.1
63209.9
49151.1
32934.8
2293.95
2299.21
15091.3
47811.5
58944.7
64900.1
67485.5
67894.3
80767.5
79543.1
76377.8
71326.1
62989.8
48151.1
24416.3
2431.09
10171.6
31142.1
49021.6
59422.2
64217
67320.5
67828.2
80652.2
79381.7
76611.4
71374
62852.8
48190.3
23103.6
6130.05
11563.5
35086.6
49164.5
60131.2
65777.4
67108.6
67719.3
80601.2
79324.4
76502.8
71804.3
63112
47925.9
21774.4
2323.81
10359.3
37750.8
53472.7
63119.7
65527.6
67036.1
67732.4
80606.1
79342.2
76619.8
71949.3
64974.8
48895.1
17262.9
2353.92
18959.9
42683.5
58959.5
63029.1
65575.5
67094
67803.8
80622.4
79366.5
76683.7
72175.8
62806.8
52170.9
2733.25
2375.97
30754.3
52942
58478.8
63052.2
65621.1
67148.4
67865.7
80639.5
79392.7
76744.5
72342.6
63184.5
52373
9059.35
2423.05
7062.69
49304.3
57244.6
62666.5
65507.2
67139.3
67884.2
85984.9
85717
85298.8
85955.2
86483.9
97578.6
141540
144602
104139
84006.9
76836.1
75435.9
74611.7
74347.1
74312.8
85895.2
85578.5
85040.5
85372.8
85023.1
97395.8
145069
131406
100492
83064.6
76112.9
75051.7
74349.4
74158.1
74147.3
85766
85398.9
84760
83971.3
84507.4
79121.7
86886.7
80123.8
75008.8
73005.1
75096.8
74190.3
73867.2
73816.3
73845.8
85614.9
85186.1
84305.7
83186.1
78562.3
73184
59347.4
23955.6
47137.4
69855.1
70269.4
73393.2
73233.2
73372.1
73462.4
85505.2
85040.5
84127.8
80779.8
77512.5
68710.8
48024.9
13932.6
35357.3
60683.6
66804.1
70095.7
72762.7
73012.2
73110.1
85430.1
84985.4
82594.3
80403
75356.5
66309.6
43884.9
2186.48
35003
58159.5
65598
70985.6
71029.8
72822.2
72956.5
85310.6
84855.9
82376.1
80228.5
74416
65608.1
41980.4
2236.77
26629.8
56847.4
72555.2
73731.2
72310.5
72875.3
72917.9
85184
84711.5
82185.3
78958.5
73776.1
63834.7
37546
2268.94
2375
61023.9
85267.1
78933.3
73916.3
73095.1
73026.5
85047.7
84547.8
81983.9
78642.1
73015.7
61049.9
18507.4
2263.28
2328.21
59538.5
82763.5
78769.8
73774.7
73027.4
73004.5
84946
84425.4
81829
79295.6
72832
61737.7
34443.6
2339.47
27624.1
57131.4
71582.8
73425.5
72277
72929.9
72991.9
84837.4
84295.3
83191.3
79318.5
73717.9
63422.1
38865.4
2333.97
35096.7
56289.6
65314.3
70629.7
72787.7
72944.8
73003.9
84810.8
84302
83241.3
81844.4
76151.5
69819.8
44315.5
2354.44
32619.6
60814.2
68593
72820.9
72847.1
73047.2
73161.3
84840.8
84382.8
83544.1
82409
82433.7
72920.7
65304.5
69598
64383.4
68725.1
73549.8
73242.8
73166
73285
73373.2
84871.2
84444.4
83667.1
83522.3
82356.9
93293.3
134251
119369
95720.3
81986
74589.8
74009.9
73482.3
73498.2
73548.5
84893.9
84485.9
83744.1
83699.3
82734.3
92763.5
127466
128854
115701
87636.4
75003.8
74178.7
73528.5
73571.1
73620.6
90923
91455.4
92555.9
96261.6
101930
109308
134720
142002
118156
100403
90363.6
85343.3
82163.4
80732.3
80149
90852.4
91348.5
92429.7
96146.7
101835
110455
142460
150113
119856
100271
89848.2
84965
81849.7
80487.4
79935.3
90735
91138.4
92250.2
94653.9
100587
106734
134800
167960
130254
100849
88237
83630.3
81153.2
79986.9
79517
90580.9
90904
91725.9
93682
94680
103967
130580
184158
132956
98268.2
85880.7
81891.2
80034.5
79260
78933.9
90461.5
90722.9
91337.5
90825.1
92968.3
95860.8
106681
175846
135964
94082
81913.5
78763.4
78773.7
78469.5
78298.2
90374.7
90541.9
89531.7
90306.9
90784.1
92527.9
99383.1
155655
132151
84879.9
76942
76856.1
76636
77821.4
77824.9
90256.5
90395.4
89426.5
90081.7
89619.3
93333.3
105486
194082
96676.7
57404
82492.6
78836.8
76807.3
77604.3
77568.4
90136.5
90263.2
89230
88712.6
89034.4
92679
109278
70429
48911.7
16249.7
165396
92267.8
78374.8
77877.7
77632.7
90004.1
90109.2
89028.7
88339.8
88185.1
89471.6
84621.3
2404.54
33220.5
3315.49
119744
96167.7
78727.4
77885.3
77685.9
89906.6
90014.5
88848.7
89159.5
87747.5
88811.6
91956.2
109876
71913.8
70587.7
85132.1
81331.1
77750.2
77983
77868.3
89818.4
90015.6
90474.1
89425.6
89087.3
90085.8
97969.8
153989
100604
81341.5
78608.8
78585.1
78920.3
78422.5
78182.8
89805.7
90061.7
90730.4
92450
92648.9
99993.9
114746
204396
119617
90729.6
83207.1
81458.7
79691.7
78930
78611.2
89843.9
90168
91112.8
93228.5
98754.6
103524
131875
170014
125728
97553.9
86941.4
82855.8
80513.4
79470.2
79033.3
89869.3
90269.4
91161.9
94536.7
99555.1
107975
138812
143597
117899
99560.8
88681.9
84262.9
81151.8
79901.8
79358.3
89878
90292.5
91157.3
94427.7
99135.2
106428
133307
126745
124766
101490
89642.7
84963.7
81418.7
80098.3
79505.7
95110.9
95913.8
97160.9
100075
104448
104127
106259
111838
106798
101033
95463.9
91076.1
87720.9
86045.6
85238.8
95110.4
95916.7
97272
100519
105239
105709
109483
115440
108788
101743
95490.5
90845.5
87453.1
85796.4
85011
95089.8
95824
97485.2
100379
105044
108650
113755
124733
112894
103805
94407
89753.2
86764.5
85223.1
84532.8
95023.7
95731.2
97317.2
100415
102776
110501
121488
137031
122719
103558
93365
87739.1
85383.9
84309.2
83807.6
94965.7
95655.1
97261.9
98223.3
102799
109297
122771
148254
126353
103188
89490.2
84298.7
83493
83115
82913.2
94909
95513
95783.2
98227.8
101564
109173
121801
114100
122993
90630
78430.1
78292.3
80103.7
81890.5
82052.1
94833.1
95429
95750.9
98405.9
101310
112095
128751
97501.3
106619
21741.5
37081.8
67078.6
76995.6
80939.9
81408
94737.1
95312
95634.8
97092.6
101401
112580
124957
91360.6
55785.4
4892.14
2089.86
50423.7
75663.5
80739.2
81254.6
94606
95158.9
95452.9
96787.9
100849
112067
139242
182750
2317.59
2281.62
2035.1
57057.1
76958.7
81155.8
81482
94486.1
95016.6
95244.4
97484.5
99966.7
109278
129349
150927
93943
54305
58035.7
74149.5
79454.3
81979.2
82030.7
94396.5
95039.8
96519
97329.4
100270
107951
126222
159647
120027
91322
82099.8
82246.1
83433.3
82959.7
82728
94343.9
95014
96522.3
99563
101822
110463
125003
151721
126213
101229
90566.7
87278.1
84978.7
83925.6
83439.3
94313.5
95004.8
96589.6
99407.4
104039
108876
116750
129485
113428
102412
93348.9
89071.9
86139.8
84701.2
84034
94262.5
95021.3
96300.4
99527
104050
104874
110491
114100
107835
100650
94387.8
90216.4
86806.5
85239.6
84453.2
94216.9
94963.9
96130.3
99054.3
103295
103132
109789
113483
108464
99443.3
94608.5
90678.8
87068.5
85484.1
84645.4
97933.4
98572
99304.4
100438
102768
102001
100787
104945
101073
98823.2
96239.7
93568.6
91220.5
89939.6
89211.2
98011.6
98679.5
99526.2
101018
103566
103015
102395
104791
102333
99604
96525.5
93526.1
91061.6
89752.7
89024.1
98136
98769.6
100012
101777
104434
105869
108604
112164
107839
101916
96452.4
93049.3
90632.5
89281.7
88610.7
98229.6
98923.1
100312
102771