/*--------------------------------*- C++ -*----------------------------------*\
| =========                 |                                                 |
| \\      /  F ield         | OpenFOAM: The Open Source CFD Toolbox           |
|  \\    /   O peration     | Version:  v2012                                 |
|   \\  /    A nd           | Website:  www.openfoam.com                      |
|    \\/     M anipulation  |                                                 |
\*---------------------------------------------------------------------------*/
FoamFile
{
    version     2.0;
    format      ascii;
    class       volScalarField;
    location    "0.047";
    object      p;
}
// * * * * * * * * * * * * * * * * * * * * * * * * * * * * * * * * * * * * * //

dimensions      [1 -1 -2 0 0 0 0];


internalField   nonuniform List<scalar> 
449343
(
107611
107761
108018
108286
108433
108276
107576
106267
104397
102169
99872.2
97783.3
96097
94926.6
94329.7
107594
107746
108004
108273
108422
108266
107568
106262
104395
102169
99874.3
97784.5
96096
94923.6
94325.5
107581
107734
107994
108266
108417
108263
107569
106268
104408
102189
99896.5
97804.9
96111.9
94935.1
94334.5
107569
107724
107987
108263
108417
108266
107578
106284
104434
102223
99935
97840.4
96140.3
94956.7
94352.3
107557
107714
107981
108262
108418
108271
107589
106305
104467
102265
99981.6
97882.8
96173.4
94981
94371.7
107544
107702
107973
108257
108417
108273
107598
106324
104496
102304
100023
97919.1
96199.5
94997.7
94383.2
107525
107685
107958
108245
108406
108266
107596
106328
104508
102323
100040
97933.3
96205.1
94995.8
94377.1
107500
107660
107934
108221
108382
108243
107571
106302
104483
102303
100020
97910.2
96177.8
94965.2
94344.8
107468
107627
107899
108184
108342
108198
107523
106250
104426
102238
99952.5
97843.2
96113.3
94903
94283.9
107430
107588
107855
108134
108288
108137
107453
106170
104334
102134
99846.4
97738.6
96016.3
94813.3
94198.2
107389
107544
107806
108079
108227
108066
107370
106072
104221
102008
99716.2
97612.3
95900.2
94706.7
94097
107348
107500
107756
108023
108164
107994
107287
105974
104106
101881
99583.1
97483.3
95781.2
94597.3
93993
107310
107459
107711
107971
108107
107929
107210
105886
104004
101768
99465
97368.5
95674.4
94498.3
93898.4
107276
107423
107672
107928
108060
107875
107150
105817
103925
101681
99374.2
97279.8
95591.1
94420.1
93823.2
107249
107395
107643
107896
108026
107838
107109
105771
103874
101625
99317.4
97224.1
95538
94369.5
93774.2
107442
107640
107996
108416
108747
108815
108252
106886
104768
102202
99606.6
97317.4
95519.3
94294.4
93676.1
107425
107624
107982
108404
108737
108806
108244
106882
104767
102206
99612.1
97321.1
95520
94292.4
93672.7
107412
107612
107973
108399
108735
108806
108246
106890
104785
102234
99643.5
97348
95539.7
94306.4
93683.6
107400
107603
107968
108399
108738
108809
108253
106904
104817
102282
99698.3
97395.5
95575.2
94332.3
93704.6
107388
107594
107965
108403
108746
108814
108269
106936
104855
102346
99771.2
97456.7
95618.9
94362.8
93728.4
107374
107583
107959
108405
108753
108824
108283
106968
104911
102410
99841.7
97515.9
95657.8
94386.5
93744.7
107356
107567
107948
108397
108746
108826
108292
106987
104947
102454
99892.2
97550.7
95674
94390.4
93742.3
107331
107543
107924
108376
108725
108803
108270
106914
104924
102440
99881.1
97534.6
95650.3
94362.1
93711.3
107299
107510
107889
108336
108682
108758
108221
106912
104868
102370
99804.2
97460.2
95581.5
94296.6
93647.9
107262
107469
107842
108282
108625
108687
108140
106816
104750
102239
99663.9
97333.2
95471.9
94199
93556.5
107220
107424
107790
108220
108555
108607
108049
106701
104605
102083
99499.5
97180
95339.8
94082.9
93448.4
107179
107379
107737
108158
108485
108534
107957
106585
104477
101927
99334
97027.3
95206.5
93964.4
93337.5
107141
107338
107690
108104
108424
108467
107880
106495
104364
101794
99194
96896
95089.3
93858.5
93237.5
107108
107303
107651
108059
108374
108411
107818
106422
104277
101695
99090
96797.5
94999.5
93775.9
93158.7
107082
107275
107621
108026
108338
108372
107775
106373
104222
101634
99027.7
96737.6
94943.5
93723.2
93107.9
107014
107319
107902
108684
109482
110126
109979
108466
105683
102233
98903.2
96158.5
94117.8
92776.9
92114.2
106997
107303
107888
108673
109474
110120
109971
108463
105687
102244
98915.7
96167.2
94121.7
92777.3
92112.8
106982
107291
107881
108673
109480
110127
109971
108479
105715
102294
98968.7
96208.1
94149.8
92796.9
92128.1
106968
107282
107879
108682
109497
110135
109966
108503
105747
102378
99067.9
96284.4
94201
92832.5
92156.4
106956
107274
107883
108699
109520
110139
109948
108504
105795
102515
99207.3
96388.9
94269.1
92877
92190.1
106942
107266
107886
108714
109551
110151
109968
108572
105918
102655
99378.5
96505.3
94336.7
92916.9
92217.3
106924
107252
107879
108725
109559
110167
109998
108633
106018
102747
99548.2
96591.5
94380.1
92934
92223.1
106900
107229
107858
108709
109550
110168
110024
108541
106027
102753
99555.8
96590.5
94366.5
92911.2
92195
106868
107195
107820
108664
109496
110102
109932
108564
105948
102667
99462
96501.1
94286.5
92837.8
92125.7
106830
107152
107769
108592
109424
110016
109826
108423
105762
102485
99200
96318
94144.4
92722.1
92021.6
106790
107105
107709
108516
109329
109930
109727
108266
105537
102239
98921.8
96097.7
93975.9
92583.6
91897.1
106750
107060
107650
108442
109243
109855
109659
108164
105379
101991
98673.1
95889.4
93809.1
92444.2
91770.3
106713
107019
107600
108378
109169
109780
109589
108055
105252
101807
98474.4
95718.1
93667.8
92322.1
91657.5
106682
106984
107559
108329
109111
109715
109525
107966
105145
101674
98338
95597.1
93563.4
92229.1
91570.2
106656
106957
107529
108294
109072
109672
109479
107912
105080
101600
98262.9
95527.6
93500.7
92171.5
91515.2
106197
106659
107582
108948
110619
112302
113355
111566
107318
102010
97430.3
94048.5
91718.9
90260.5
89561.1
106178
106641
107568
108939
110615
112298
113341
111562
107321
102025
97447.8
94060.4
91725.1
90263.1
89561.8
106160
106627
107562
108946
110636
112322
113341
111595
107376
102119
97528.9
94114.9
91761.2
90288.7
89582.2
106143
106615
107564
108970
110678
112370
113212
111662
107388
102326
97710.9
94226.1
91830.2
90335.8
89619.5
106127
106607
107574
109006
110747
112371
112467
111428
108227
102669
97988.2
94401.6
91929.5
90398.1
89666.1
106110
106600
107594
109078
110839
111599
112418
111514
108470
104060
98403.8
94621.8
92043.3
90459.1
89707.7
106089
106587
107597
109109
110189
111660
112460
111620
108645
104302
99791.2
94783.3
92124
90494.3
89724.6
106064
106567
107583
109099
110173
111685
112520
111592
108733
104412
99861
94808.5
92133.2
90481.3
89698.9
106034
106531
107540
109049
110131
111627
112438
111600
108672
104333
99792.6
94698.7
92030.4
90394.6
89622.4
105999
106487
107478
108956
110711
111505
112317
111450
108440
104078
98232.7
94431.6
91842.5
90253.4
89500.5
105962
106440
107402
108825
110552
112162
112274
111255
108137
102377
97683.2
94088.8
91614.8
90084.1
89353.2
105927
106396
107337
108731
110419
112089
112887
111283
106962
101878
97262.2
93787.1
91401.6
89915.8
89204.3
105895
106358
107284
108652
110319
111976
112933
111118
106834
101543
96953.9
93561.1
91228.6
89771.9
89074
105867
106326
107243
108596
110245
111894
112869
110998
106683
101341
96768.6
93411.5
91105.7
89665.1
88975
105843
106301
107214
108560
110202
111848
112827
110937
106606
101249
96676.9
93330.6
91034.9
89601.1
88914.4
104798
105429
106741
108834
111776
115472
119482
116975
109815
100809
94483.3
90574.2
88116.5
86667.9
86002.7
104775
105407
106723
108823
111772
115473
119454
116958
109803
100809
94491.4
90579.1
88119.7
86670.1
86004
104749
105385
106710
108830
111814
115528
119472
116977
109901
100914
94578
90628.9
88154.5
86697.5
86027
104722
105364
106707
108884
111971
115730
117172
117106
111521
101502
94888.3
90768.7
88230.3
86751
86070.3
104693
105343
106716
108943
112094
114246
117215
117182
111861
104018
95343.7
90992.4
88353.5
86825.2
86126.8
104666
105333
106755
109144
111241
114474
117354
117297
112195
104693
97852.7
91361.8
88496.6
86909.8
86181.4
104635
105303
106732
108544
111292
114615
116495
116820
112829
106064
98456.5
93400.4
88580.5
86945.8
86204.8
104610
105284
106771
108515
111317
114654
116578
116992
113176
106443
98795.5
93580.2
88708.4
86934.1
86188.1
104581
105248
106676
108472
111268
114601
116515
116951
113106
106395
98675.5
93484.1
88490.2
86841.8
86097.4
104557
105222
106641
109023
111126
114416
116407
116691
112677
104925
98019.1
91177.6
88288.6
86691.5
85960.6
104532
105180
106548
108766
111900
114135
117057
116984
111739
104137
95022.8
90655.1
88012.7
86486.2
85789.8
104509
105149
106486
108651
111720
115453
116880
116803
111333
100941
94360.5
90269.7
87753.3
86291
85619.3
104489
105122
106440
108547
111508
115188
119060
116544
109237
100172
93879
89985.9
87554.8
86127.6
85472.3
104469
105098
106406
108492
111415
115072
118972
116369
108997
99908.9
93653.2
89819.4
87418.8
86009
85362.7
104450
105077
106382
108459
111372
115018
118941
116291
108913
99800.7
93550.2
89732.8
87342.9
85939.8
85297.1
102572
103320
104939
107721
112160
119175
124957
130618
117389
96398
88860.3
85183.8
83049.9
81922.1
81444.1
102542
103291
104912
107699
112153
119166
124927
130552
117267
96268.8
88811.6
85157.9
83040.5
81919.7
81443.6
102502
103252
104877
107671
112155
119202
124903
130492
117145
96174.8
88781.8
85144.2
83054.9
81940.5
81464.6
102455
103211
104851
107703
112495
117036
125010
130606
117189
100769
89035.1
85165.9
83106.9
81990.9
81508
102400
103152
104796
107738
111282
117307
125336
128303
118743
101836
92657.4
85348.3
83172.1
82053.5
81566.4
102351
103096
104821
107344
111388
116413
123633
127533
119401
104891
93490.1
88149.4
83312.9
82121.5
81625.2
102299
103030
104783
107356
111505
116431
122806
127907
120832
106958
95916.7
88629.6
83393.3
82147.8
81649.6
102258
102973
104799
107392
110862
115941
122882
128318
121901
108013
96543.1
88913.7
85492.7
82092.2
81621.4
102244
102974
104722
107333
110825
116369
122842
128314
121991
108101
96510.2
88760.7
83294.2
82034.6
81534.3
102245
102988
104710
107212
111381
116325
122672
127829
120860
107053
95764
88333.9
83100.6
81891.3
81390.5
102242
102992
104633
107566
111103
117215
123326
128215
119062
104423
92850.4
84984.1
82801.4
81686.7
81203.7
102248
103001
104637
107483
112262
116831
124780
130262
116731
100517
88406
84587.5
82572.2
81486.6
81018.4
102249
102997
104618
107405
111877
118903
124572
129958
116336
95105.5
87901.6
84382.3
82375.9
81312.2
80860.3
102244
102991
104609
107389
111828
118813
124478
129846
116127
94951.6
87748.4
84252.7
82243.1
81189.1
80744.3
102233
102979
104595
107369
111793
118775
124459
129811
116081
94884
87662.2
84176.5
82169.1
81118
80675.8
99306.8
100021
101622
104547
109547
116474
133096
163427
122376
89364.1
78527.1
77100.7
76328.5
76086.6
76024.6
99267.3
99980.2
101578
104500
109503
116440
133034
163313
121747
88876.5
78346.2
77014.4
76299.2
76077.1
76021.1
99206.4
99911.6
101497
104387
109352
116379
132895
163139
121142
88460.2
78135.7
76921.5
76282.5
76084.4
76037.7
99129
99825.4
101394
104133
108742
116693
132858
162960
120799
88483
81643.6
76683.2
76287
76115.9
76077.4
99027
99693.6
101156
104199
108700
115765
129881
162791
121750
92741.6
81769.6
79234.4
76240.3
76161.6
76132
98921.2
99505.2
101631
104196
108406
115634
128355
157780
127437
95978.5
84976.7
79621.2
78287.1
76191.9
76189.1
98851.6
99425.9
101588
104135
108357
115121
128053
157703
130622
98861.4
87655.9
81905.5
78464.3
76266.3
76229.9
98788.1
99360.9
101611
104114
108294
114982
127783
157712
136757
102731
89107.8
82413.5
78647.9
76260.1
76170.7
98798.8
99371.5
101539
104107
108286
114936
127689
157528
138054
103387
89255.9
82393.7
78512.8
76151.4
76106.8
98818.5
99403.2
101531
104039
108283
114999
127855
157368
131100
99357.8
87755.6
81752.3
78219.7
75949.5
75940.6
98870.9
99535.9
100999
104023
108491
115521
128156
157496
127111
95742
84665.8
79109.6
75831.4
75765.6
75743.9
98926.5
99623.1
101191
103933
108412
116378
129709
162531
120060
92077.6
81011.4
76004.6
75695
75570.2
75552.5
98960
99665.8
101252
104143
109116
116142
132672
162691
119556
87060.4
77022.3
76038.1
75529.2
75402.9
75389.6
98978.1
99692
101292
104220
109233
116171
132747
162794
119487
86843.4
77029.9
75965.1
75413.2
75284.5
75271.4
98976.9
99693
101297
104229
109239
116163
132792
162840
119641
86871.4
77010.2
75920.9
75347.3
75214.7
75202
94952.8
95374
96317.4
98067.1
100971
107727
115167
112686
44335.9
60079.8
63609
66489.3
68387.4
69617.1
70186.8
94905.2
95322.6
96259.3
97993.9
100902
107651
115105
112578
35636
58774.9
63213.5
66346.3
68347.5
69604.9
70183.3
94825.8
95227.8
96148.4
97884.4
100738
107489
114953
112435
31479.5
57879.5
62998.6
66300.1
68345
69618.4
70205.2
94718.9
95088.4
95976
97524.4
102009
106977
114608
112226
34225.5
57893.5
64458.4
66447.2
68414.8
69668.3
70259.5
94578.7
94905.7
95690.9
98643
101645
107290
115230
111794
29596.5
61481.6
66431.8
68095.5
68659.5
69795
70343.9
94423
94729.1
96808.2
98437.3
102051
107380
114681
110808
29264.2
63527.5
68535.7
68707.2
70110.8
69987.4
70433.5
94344.8
94636.2
96724.3
98282.4
102217
107086
114035
109084
49615.1
68461.2
70593.3
70478.1
70314
70120
70505.6
94291.2
94569.4
96647.2
98921.5
102115
106860
113400
106317
87536.1
75914.4
72609
71808.5
70481.1
70133.7
70472.1
94294.1
94585.6
96628.6
98889.1
102085
106810
113263
105555
113331
78463.1
72870
71797.4
70333.5
69993.5
70375.2
94315.1
94621
96673.1
98233.1
102127
106968
113789
108323
46422.9
69800.2
70741.7
70247.8
70005.9
69720.1
70167.8
94426.2
94753.3
95537.7
98389.3
101958
107239
114496
110534
28071.9
63093.7
68172.1
67976.7
68192.9
69371.6
69934.1
94521
94892.9
95785.5
97343.6
101692
106459
114061
111865
25879.6
58610.7
63645
65700.9
67783.7
69093.9
69711.1
94583.8
94988.9
95915.5
97662.3
100548
107085
114667
112444
25331.2
55957.2
61772.4
65357.7
67546.5
68905.3
69531.5
94622.1
95043.9
95991
97748.5
100685
107432
114961
112750
25003
55856.9
61723.4
65209.6
67409.6
68778.1
69406.4
94629.5
95055.8
96011.1
97782.6
100720
107520
115072
112886
26312.9
56125
61799.3
65183.8
67342.8
68707.2
69335
89796.7
89680.6
89425.8
89045
88942
92968.4
96713.7
109955
12924.8
36444.3
49168.7
56218.5
60832.1
63546.3
64770.7
89747.3
89626.4
89366
88977.1
88884.8
92888.7
96638
109738
2685.28
35705.7
48875.1
56129.5
60808.7
63540.9
64772.6
89667.6
89535.2
89262.1
88898.8
88776.9
92720.8
96469.8
109586
2305.32
35201.1
48802.9
56156.2
60851.4
63583.6
64811.4
89565
89400.1
89114.3
88880.9
91535.5
92578.6
96147.5
109344
6118.07
35426.5
49088.8
56515
61008.5
63694.1
64899.6
89442.9
89255.1
89019.6
90858.4
91445.1
94299.3
97041.6
109135
2521.94
35664
50121.3
57562.9
61354.9
63907.4
65040.3
89316.6
89200.7
90541.9
90688.8
92567.9
94919.6
96670.3
108475
4327.75
37507.8
51458.8
58079.5
62304.1
64140.5
65185.9
89256.8
89149.2
90386
90590.9
93095.5
94656.6
96267.1
107975
2103.13
40201.4
52857.9
59046
62546.1
64266.6
65266.2
89210
89094.4
90299
91509
92980.2
94475.8
95941.9
107447
3860.27
38641.6
53535.2
59657.3
62637.8
64279.1
65241.2
89203.1
89095.9
90274.8
91481.9
92953.1
94438
95877.2
107333
2292.85
36211.5
53229.6
59520.9
62492.7
64120.5
65126.3
89209.8
89095
90323.5
90561.6
93009.5
94564
96129.9
107766
11159.4
38883.4
52284.5
58620.7
62170
63848.1
64905.3
89287.4
89100.9
88869.9
90577.7
92501.6
94815.3
96538.1
108317
2956.33
36806.1
50774.7
57268.2
60870.1
63473.8
64620.5
89364.3
89202.8
88922
88702.2
91364.5
92508.3
96062.7
109081
5324.67
34928.8
48719.2
55823.3
60385.4
63119.7
64350.2
89424.2
89297.1
89037
88694.6
88602.1
92506.5
96184.8
109307
4089.14
34385.2
47847.4
55287.6
60078.5
62882.1
64144.1
89463.5
89349.7
89104.5
88742.4
88686.8
92667.6
96451.5
109574
2489.14
34245.6
47671.8
55083
59908.9
62732.1
64006.8
89473.4
89364.8
89126.2
88774.9
88712.1
92776.3
96587.1
109718
3795.15
34325.3
47737.7
55028.4
59832
62657.1
63932.1
84558.2
83844.1
82360.2
79995
79583.7
78266.4
80720.5
2270.03
26676
41075.1
49712.4
55654.3
59201
60849.2
84512
83793.4
82304.2
79934.3
79511.7
78177.1
80623.1
2299.67
26706.8
41008.5
49715.9
55653.1
59204.8
60855.1
84444.9
83723.1
82216.2
79837.8
79452.3
78068
80444
2290.37
26225.4
41097.7
49778.2
55715.1
59260.9
60899.9
84373.2
83640.8
82105.5
79900.3
79637
77899.4
80169.5
2299.46
26616.9
40137.7
50132.1
55880.9
59390.8
60994.7
84307.7
83569.4
82161.2
82006.1
80092
79908.9
80739.8
2312.46
24537.7
40025.9
50014.4
56182.1
59607
61143.7
84245.5
83630.1
83613.1
82163.2
81337.7
80774.8
80562.2
2328.19
25907.4
40485.4
50337.4
56232.4
59749
61296.2
84208
83598
83536.1
82187.3
82049.6
80706.9
80431.6
6766.42
28329.2
41379.4
50467.5
56415.9
59797.5
61347.1
84164.5
83558
83482.6
83001.1
82096.3
80645.3
80349.1
17468.2
28961.1
41406.8
50509.5
56379.6
59782.6
61310.6
84149.9
83539.8
83457.2
82985.2
82070.2
80612
80308.5
2308.83
23038.5
40519.6
50252.4
56245.6
59639.9
61200.7
84133.5
83522.1
83468.5
82124.2
81976.2
80620
80334.2
4338.93
24702.5
40084.1
49888.5
56031.7
59449.5
61011.8
84142.5
83404.9
82002.6
81830.6
81197
80656.5
80451.4
2296.94
24746.1
39559
49582.3
55703.1
59181.5
60731.7
84161.5
83433
81904.5
79720.6
79508.4
77875.8
79710.5
2289.87
24702.1
39757.2
49521.1
55301
58850
60471.6
84190.6
83474.7
81982.3
79629.6
79242.8
77853
80174
2294.81
25800.6
40414.1
49074.2
55033.2
58615.1
60273.2
84217
83506.1
82034.4
79697.5
79314.3
77991.9
80426.4
2295.74
25901.2
40216.8
48906.7
54876.5
58467.2
60140.1
84223.5
83517.7
82052.5
79722.7
79309.7
78070.8
80574.5
2294.15
25943.1
40203.5
48820.1
54800.8
58393.4
60067.5
80172.6
78905.6
76245.2
71601.9
69112.6
61112
56640.4
4227.09
2296.79
25960.6
38705.8
47734.9
53808.3
57489.3
59248.4
80125.6
78851.8
76176.5
71508.1
69012.2
60955.9
56386.1
2783.77
2296.88
25352.5
38670.1
47719.6
53794.6
57487.5
59246.7
80060
78781.6
76071.8
71338.1
68873.6
60734.4
56134.7
2799.14
2293.63
21336.1
38801.8
47733
53832.3
57519.1
59270.8
79996.7
78717.3
75917
71194.9
68704.5
60464.4
55955.8
2391.3
2305.53
22095.9
36216
47879.4
53929.5
57598.6
59322.6
79954.7
78653
75796.9
74169.5
68309.4
63349.6
57782.4
2357.69
2297.23
19951.2
35149
46323.1
54061.4
57757
59423.7
79918.9
78610.9
77744.1
73958.4
70269.2
64637.8
57803
3035.25
3142
20870.2
34945.8
46456.7
53072.6
57816.4
59524.1
79876
78556.6
77675
73768.6
71087.8
64618.6
57939.2
2648.91
2864.37
21767.3
35336.3
45744.3
53150.3
57804
59530
79828.4
78516.5
77607.6
75164.8
71029.3
64639
58127.9
5401.74
2287.8
20482.4
35120.7
45330.6
53086.1
57758.1
59483
79810.8
78490.6
77586.4
75154.8
70998.6
64598.9
58075.7
2233.25
2196.89
18841.3
34488
45106.3
52981.1
57652.3
59389
79792.9
78486.2
77620.4
73724.2
71023.6
64519.5
57796.7
3045.19
3498.07
19872.9
34310.9
45268.7
52843.5
57536.6
59255.3
79771
78469.5
75613.1
73991.6
70184.2
64518.4
57692.2
3138.66
2300.91
19995.2
34170.6
45891.3
53613.6
57365.4
59034
79763.8
78487.6
75694.1
70991
68381.5
60271.3
55800.4
2285.97
2295.17
20504.5
35814.9
47330.7
53392.4
57112.1
58846.2
79782.8
78509.3
75812.2
71104.8
68558.1
60486
55932.4
3224.56
2296.76
21453.9
38236.2
47118
53225.9
56937.5
58698
79806.6
78539.6
75880.3
71244.2
68750.9
60745.8
56225.1
2374.43
2296.21
24642.5
38039.3
47020.4
53115.7
56825.3
58594.4
79813.3
78553.7
75910.2
71300.3
68836.1
60920.4
56469.9
2572.4
2296.53
24832.8
38079.3
46955.8
53065.4
56765
58535.1
77486.8
75801.6
72216.2
65874.6
54987.4
44619
18998.7
2315.32
2309.57
28215.8
40842.7
49446.7
55127.3
58565.1
60202.3
77430.6
75733.9
72114.4
65724.5
54743.2
44322.1
18983.9
2257.37
2303.22
27621.9
40645
49342
55074.4
58539.6
60183.8
77350.4
75643.4
71979.5
65545.7
54409.3
43819.4
18769
2249.27
2302.11
22381.8
40467.5
49272.2
55045.3
58526.5
60176.8
77266
75565.7
71804.4
65343.8
58857.7
43369.9
18729.8
2265.08
2300.47
22241.1
36408.5
49212.8
55023.9
58531.8
60185
77205.8
75504.4
71719.7
67889
58701.4
47216.4
25156
2275.4
2273.2
18992.4
34571
46414.5
55041.4
58593.5
60212.4
77165.5
75442
73319.2
67778.6
60885.5
49064.2
25939.2
2284.54
2285.23
19520.1
33744.2
46338.4
53107.8
58603.2
60247
77107.6
75369.4
73302
67653.8
61825.1
49105.7
26227
2302.43
2865.93
19288.4
33642.9
44908.7
53068.1
58560.2
60217.7
77053.2
75320.7
73251.7
69007.9
61738.5
49166
26491.6
2666.4
6203.62
16211.7
33098
44126.8
52985.2
58502.1
60169
77029.4
75287.2
73222.1
68978.6
61694.6
49103.8
26422.2
2298.19
2262.3
16562.7
32893.2
43997.6
52921.6
58426.4
60090.7
77016.9
75290.6
73227.1
67575.7
61717.1
48970
25978.7
2287.7
2311.7
18797.1
33157.9
44634.7
52868.8
58351.8
60004.2
76993.1
75288.3
71494.4
67735.8
60738.8
48920.1
25804.3
2290.92
2293.66
19138.8
33293.1
45984.8
54641.7
58229.7
59859.4
77000.4
75299.5
71537.9
65084
58596.9
43245.5
20251.3
2280.71
2284.83
20078.6
36031.9
48717.8
54546.5
58073.8
59735.6
77038.1
75332.7
71674.6
65257.3
54158.8
43495.4
18633.4
2256.3
2301.99
21860.3
39950
48685.8
54484.8
57981.3
59640.5
77075.3
75382.1
71772.3
65406.8
54478.7
43952.4
18753.8
2248.69
2301.86
26761.1
40019.2
48648.2
54434.4
57918.2
59573.8
77090.3
75408.7
71832.6
65513.3
54675.8
44297.5
19071.1
2257.29
2302.16
27118.9
40143.5
48656
54422.6
57882.6
59533.9
77150.1
75423.6
71723.4
65279.3
54302.3
41539.9
7055.02
2302.97
8088.63
35374.8
46961.1
54450.2
59249.1
62084.3
63424
77080.7
75337.5
71579.8
65020
53942.8
40587.4
5894.3
2242.45
4901.86
34744.6
46548.1
54252.7
59148.3
62032.7
63387.1
76983.5
75224.1
71397.3
64752.1
53907.7
39414.8
7653.63
2266.19
2305.79
26680.8
46390.1
54129.6
59059.6
61982.8
63352
76882.8
75129.5
71245.7
64599.5
55983.8
38603.2
9064.93
2266.18
2302.59
26395.8
41002.9
54000.7
58966.2
61936.5
63324.7
76813
75081.9
71248.6
65983.7
55635.2
41084.4
18231.7
2280.55
2296
21701.9
38319.9
50315.8
58970.8
61956.1
63317.7
76773.6
75057.4
72005.1
65827.7
57027.5
42212.7
18314.8
2283.33
2300.02
21910.8
36933.5
50125.6
56333.8
61977.8
63329.7
76705.9
74979.4
71960.7
65723.6
57631.6
42165
18191.4
2378.1
2299.61
21511.9
36609.4
48129.7
56239.1
61933
63289.4
76648.5
74921.5
71917.7
66584.6
57499.8
42178.4
19819.8
11272.2
2428.64
18993.5
36000.2
47045.8
56148.3
61876.4
63243.9
76609.6
74873.8
71883.1
66541.9
57432.3
42038
18314
2408.3
2296.74
18938.8
35901.7
46973.9
56113.4
61813.3
63173.9
76595.5
74870.3
71851.7
65608
57464.7
41960
18086.5
2300.23
2310.38
21216.7
36344.7
47976.3
56108.4
61747
63105.8
76562.1
74819.9
70960.2
65731.4
56802.8
42013.7
18205.5
2290.63
2299.45
21703.9
36644.8
49900.5
58601.8
61617.3
62989.8
76574.8
74813.6
70914.4
64250.6
55489.3
38643.6
17476.3
2280.36
2299.57
23149.2
40515
53534.8
58519.3
61506.8
62904.6
76626.6
74861.9
71025.9
64373.8
53534.9
38705.1
8213.74
2277.24
2305.33
26011.3
45783.3
53555
58526.6
61466.6
62848.2
76679.7
74933.4
71171.2
64611.3
53559
40276.4
5610.53
2256.62
2799.56
34120.9
45902.1
53556.4
58538.6
61441.6
62811.4
76707
74976.8
71270.6
64811.1
53872.2
40901.4
6011.32
2243.29
4202.78
34692.8
46127.8
53642.4
58569.1
61430.9
62790
79362.5
78090.7
75405.3
71046.2
62078
52316
15988.6
2325.68
34833.8
52908.4
57981.6
62825.5
65821.1
67582.9
68435.7
79280.3
77981
75207
70586.4
61016.3
50398.8
2473.27
2324.16
33076.3
52288.8
57396.7
62575.8
65688.9
67512.2
68384.6
79169.1
77845
74984.8
70079
62583.6
47306.2
14718.9
2434.74
10225.8
40186
57324.7
62333.4
65550.4
67446.4
68336.8
79057.1
77713.2
74753.4
69772.3
61354.7
45488.7
15701.1
2299.68
2307.86
37468.7
50816.6
62191.9
65387.9
67382.7
68297.1
78981.6
77642.1
74722.9
69420.8
60461.7
45530.2
20938.8
2298.44
2307.33
29928.4
47381.8
58077.5
65528.1
67413.8
68292.1
78943.3
77643
74388.5
69088.1
60405.6
45452.7
20520.2
4117.61
2310.44
29965.8
45479.6
57915.8
62523.6
67496.5
68321.2
78868.7
77561.3
74252.7
68921.3
60338.1
45041.2
20279.4
2170.87
6122.14
29408.4
45001.4
55543.5
62412.5
67471.3
68287.3
78809.5
77493
74184.6
68975
60086.2
44744.8
19592.9
2120.35
9808.65
27437.7
44419.8
54259.9
62375.3
67428.6
68250.2
78748
77429.2
74135.3
68907.2
59982.8
44609.4
19756.7
2346.97
2248.96
27514
44411.4
54223.5
62338.9
67362.5
68181.8
78730.9
77412.8
74112.1
68741.3
60063.1
44721.1
19941
2248.61
2316.58
29195.8
44859.9
55444.4
62295
67279.2
68112.8
78688.3
77326.3
74357.7
68905.5
60058.8
45104
20219.1
2300.14
2312.95
29439.1
45206.1
57702.6
65136.4
67088.4
67983.6
78703.1
77342
74345.5
69304.2
60369.5
44748.1
19836.9
2292.68
2304.12
31935.9
50148.2
61733.5
64984.6
66978.4
67901.9
78764.9
77427
74538
69587.5
62044.5
45897.5
15057.4
2336.02
7202.19
37905.5
56659.7
61762.3
65041.8
66958.9
67863.3
78831.8
77521.1
74724
70064.6
60461.8
49779.6
2473.22
2324.43
31326.6
51681
56638.5
61903.9
65111.6
66953.4
67843.5
78871.1
77586.5
74874
70447
61346.2
51479.1
12729.6
2322.72
33736.7
52659.6
57056.1
62090
65184.1
66961.4
67835.2
83592.7
83140.6
82286.2
82144.6
80957.8
89980.5
126637
117984
92882.6
79125.2
73845.2
73997.7
74085.9
74367.9
74581.7
83503.8
83009.3
82052.5
81575.9
79678
88398.2
124911
101402
89021.7
77913.5
73144.1
73717.4
73936.6
74293.4
74530.6
83382.9
82840.5
81778
80207.1
79119.3
71633.1
69538.8
50261.3
53005.8
64999.1
72431.2
73094.3
73747.1
74217
74477
83259.8
82668.5
81418.2
79629.4
73832.4
65919.9
45140.1
11958.1
24975.3
60628
66615.9
72787.7
73556.3
74151.8
74432.6
83177.1
82564.5
81313.2
77371.3
72872.3
62059.7
36976.5
2279.62
12935.1
49562.8
62938.2
69341.1
73623.8
74176.2
74432.4
83137.3
82542
79836.6
77039.9
71050.4
60067.8
35017.4
2357.58
25872.2
49205.1
60772.4
69334.3
71028.2
74208.4
74476.5
83057.8
82456.9
79652.2
76907.9
70215.6
59199.2
33413
2280.63
12998.4
47723.8
60205.2
66988.1
71008
74192.5
74447.7
82997.7
82388.2
79558.6
75914.3
69842.1
58460.1
31755.2
2186.91
2505
45562.3
59689.5
65551.1
71010.9
74169.4
74428.2
82918
82305.4
79481.8
75809.6
69638
58121
32378
2661.46
5122.54
46587.2
59876.8
65545.8
70964.1
74102.1
74359.6
82896.4
82281.1
79447
76577.5
69700.7
58333.3
32470.1
2302.51
13159.1
48267
60309.3
66880.4
70874.1
74018
74289.5
82846.8
82201.9
80875.9
76601.7
70450.6
59220.7
34159.8
2308.46
12671.7
48583
60504.9
68990
73291.2
73879
74146.7
82866.4
82249.7
80943.5
79060.4
72434.3
63981.4
36904.9
2297.26
12863.7
52745.1
65771.1
72304.9
73116.9
73761.7
74060.5
82939
82375.7
81268.2
79618.5
78416.2
67160.9
51888.8
33137.8
46482.3
62211.2
71765.8
72576.5
73274.2
73759.5
74032.3
83016.5
82504.2
81508.1
80950.8
78893.8
87102.9
122112
96395.5
87411.6
77144.2
72349.7
73113
73395.3
73766.5
74020.8
83063.2
82592.1
81696.1
81483.4
80054.3
88775.9
125673
109860
91478.2
78399
72923.9
73377.6
73487
73784.9
74020.7
88663.1
89029.2
89738.4
92803
97115.3
103399
127790
129621
113313
96877.5
88365.3
84766.2
82355.2
81364.2
80981.9
88593.9
88925.7
89620
92612.2
96940.9
104082
133649
137570
115587
96741
88053.5
84610.8
82252.4
81308.6
80940.9
88491.1
88739.4
89466.5
91166.9
95889.8
99496.2
125015
155855
122618
95379.8
87252.4
83928.5
82096.6
81230.2
80892
88380.1
88573.3
89091.5
90466.3
90459.1
97126.3
118962
162349
120497
93514.3
85128.1
83363.7
81889.7
81158.8
80847.9
88303
88465.9
88857.6
87670.4
89113.2
90079.2
94873
138548
94877.1
86299.6
83237.8
81808.3
81788.9
81142.5
80833.4
88265.2
88331.7
86950.1
87307.5
86808.6
86843.1
88391
75237.6
76537.8
84331.1
81965.1
81607.3
80361
81058.9
80844.1
88183.5
88225.3
86887.9
87088.6
85431.7
86336
88330.9
67622.6
73714.7
82789.4
81369.2
80435.6
80341.6
81014
80815
88126.8
88160.4
86785.2
85752.8
84962
85442.9
88550.9
52685.7
62494.8
81440.2
80822.1
79623.5
80240.8
80996.1
80799.4
88034.7
88068.7
86690.7
85586.5
84595.2
84173.4
80184.4
48139.6
105958
85078.2
81147.7
79606.8
80221.8
80945.9
80737.2
88007.5
88050.3
86612.2
86656.4
84483.6
83964.6
79656.9
46201
96003.9
86150.4
81422
80233.5
80199.5
80905.2
80677.3
87950.1
88081.2
88391.6
86891.1
85764.7
85012.3
85039
88393.6
88256.3
85182.7
81383.9
81222.6
81495.3
80869.7
80570.5
87963.1
88129.2
88587.3
89870.2
89046.1
94037.3
101718
143546
97349.7
88240.4
84146.8
82896
81502.7
80792.4
80499.9
88024.8
88252.1
88936.5
90569.7
95219.1
98212.1
124484
161993
121517
94206.5
86614.8
83447.4
81638.8
80810.9
80481.7
88086.8
88402.7
89063
91998.4
96277.2
103253
133316
137476
115577
96015.5
87340.6
84062
81735.4
80817
80466.1
88116.6
88471.2
89150.5
92220.3
96593.5
102541
129229
130899
113862
95926.4
87573.7
84211.3
81781.2
80821
80455.7
93215.6
93948.8
95042.2
97880.2
101958
101974
106402
111573
107598
100462
95527.4
91771.3
88816.3
87380.5
86691.3
93211.5
93948.9
95159.6
98283.9
102854
103784
110380
115963
109820
101326
95988.5
91928.9
88847.4
87380.6
86682.1
93197.8
93870.1
95398.9
98152.5
102975
106226
112977
126292
113887
104278
96196.9
91838.6
88908.3
87364.9
86675.1
93163.3
93825.9
95332
98453.8
100581
109068
122971
140463
125976
106603
96835.7
91826.5
88901.7
87348.7
86666.3
93124.5
93777.3
95286.4
96134.1
100879
108360
126163
163083
136577
110933
97763.9
91537.1
88961.3
87369.1
86667.7
93082.1
93598.6
93739.1
96018.5
99203.5
107648
129263
175653
142634
117655
99352
91818.2
88289.8
87284.6
86671.1
93014.8
93513.3
93680.7
96028.2
98486
108751
136815
167371
137156
122722
99792.3
91627.9
88349.9
87287.3
86665
92961.7
93445.3
93608
94742.9
98412.2
108426
131152
175793
133865
112746
98552.4
91360.3
88384.7
87278.3
86663.5
92860.8
93334.8
93506.1
94588
98167.9
107856
126843
129479
145359
113404
98718
91466.1
88366
87219.9
86587.3
92811.2
93287.3
93413.4
95529.6
97816
107291
126266
163834
145734
113388
98423
91483.5
88229.3
87136.2
86516.9
92760.4
93374.2
94769.4
95489
98294
106108
125858
169732
140515
111131
97417.7
91261.1
88655.9
87111.8
86428.5
92738.5
93375.1
94821.9
97862.7
99951.2
109155
125333
161247
133967
108087
96376.2
91413.6
88549.6
87021.6
86350.4
92727.7
93385.2
94887.2
97613.2
102490
107331
117163
132093
116624
104868
95690.3
91410.5
88489.3
86973.8
86291.2
92703.5
93433.6
94634.1
97747.6
102452
103448
110837
117108
109920
100834
95499.6
91460.5
88372.3
86926.7
86238.2
92672
93408.3
94502.5
97364.7
101833
101683
107472
113405
107928
99871.7
95057.1
91287.4
88285.4
86880.9
86197.9
96521.2
97185.6
97975.3
99368.7
102063
101797
102307
107045
102999
99990.2
97802.8
95239.7
93018.2
91822.7
91142.3
96589.1
97285.9
98213.8
99950.7
103020
103085
104706
106731
104424
101085
98473
95552.7
93158
91882.8
91175.4
96700.3
97365.3
98700.4
100682
103892
105630
109628
115064
109728
103832
99171.7
95917.7
93412.9
91961.7
91237.6
96794.4
97524.4
99016.5
101742
103738
108666