/*--------------------------------*- C++ -*----------------------------------*\
| =========                 |                                                 |
| \\      /  F ield         | OpenFOAM: The Open Source CFD Toolbox           |
|  \\    /   O peration     | Version:  v2012                                 |
|   \\  /    A nd           | Website:  www.openfoam.com                      |
|    \\/     M anipulation  |                                                 |
\*---------------------------------------------------------------------------*/
FoamFile
{
    version     2.0;
    format      ascii;
    class       volScalarField;
    location    "0.047";
    object      p_rgh;
}
// * * * * * * * * * * * * * * * * * * * * * * * * * * * * * * * * * * * * * //

dimensions      [1 -1 -2 0 0 0 0];


internalField   nonuniform List<scalar> 
449343
(
107473
107624
107881
108149
108296
108138
107439
106130
104260
102031
99734.8
97646
95959.6
94789.3
94192.4
107477
107628
107886
108156
108304
108148
107450
106144
104277
102052
99756.5
97666.7
95978.3
94805.9
94207.8
107483
107636
107896
108168
108319
108165
107471
106170
104310
102091
99798.4
97706.8
96013.8
94837
94236.4
107491
107645
107909
108185
108338
108188
107499
106206
104355
102145
99856.5
97761.9
96061.8
94878.3
94273.8
107499
107655
107922
108203
108359
108212
107531
106246
104408
102206
99922.7
97824
96114.5
94922.1
94312.8
107504
107663
107934
108218
108377
108234
107559
106285
104457
102265
99983.5
97879.9
96160.2
94958.5
94344
107505
107666
107938
108226
108386
108246
107576
106308
104488
102303
100020
97913.7
96185.4
94976.2
94357.5
107500
107660
107934
108221
108382
108243
107571
106302
104483
102303
100020
97910.2
96177.8
94965.2
94344.8
107488
107647
107918
108203
108361
108218
107543
106270
104446
102258
99972.1
97862.8
96132.9
94922.6
94303.5
107470
107627
107894
108174
108328
108176
107493
106210
104373
102173
99885.7
97777.9
96055.6
94852.5
94237.4
107448
107603
107865
108138
108286
108125
107429
106131
104280
102067
99775
97671.2
95959.1
94765.6
94155.9
107427
107578
107835
108101
108243
108072
107365
106052
104184
101959
99661.6
97561.8
95859.7
94675.8
94071.5
107408
107557
107809
108069
108205
108027
107309
105984
104102
101866
99563.1
97466.6
95772.5
94596.4
93996.5
107394
107541
107790
108045
108178
107993
107268
105934
104042
101798
99491.9
97397.5
95708.8
94537.8
93941
107387
107533
107780
108033
108163
107975
107246
105908
104011
101763
99454.7
97361.5
95675.3
94506.9
93911.5
107305
107503
107858
108279
108610
108678
108115
106749
104630
102065
99469.3
97180.1
95382
94157
93538.7
107308
107507
107864
108286
108619
108689
108126
106764
104650
102088
99494.4
97203.3
95402.2
94174.7
93555
107314
107514
107875
108301
108637
108708
108147
106792
104687
102136
99545.4
97249.9
95441.6
94208.3
93585.5
107321
107524
107889
108321
108659
108731
108174
106825
104738
102203
99619.8
97317
95496.8
94253.8
93626.1
107329
107535
107906
108344
108687
108755
108210
106877
104797
102287
99712.3
97397.8
95560.1
94303.9
93669.5
107335
107544
107920
108365
108713
108784
108244
106928
104872
102370
99802.5
97476.7
95618.6
94347.2
93705.4
107336
107548
107928
108378
108726
108806
108272
106968
104927
102434
99872.6
97531.1
95654.3
94370.7
93722.7
107331
107543
107924
108376
108725
108803
108270
106914
104924
102440
99881.1
97534.6
95650.3
94362.1
93711.3
107319
107530
107908
108356
108702
108778
108241
106932
104887
102390
99823.8
97479.8
95601.1
94316.2
93667.6
107301
107508
107881
108321
108664
108726
108179
106855
104789
102278
99703.2
97372.4
95511.2
94238.2
93595.8
107279
107483
107848
108279
108613
108666
108108
106760
104664
102142
99558.3
97238.8
95398.7
94141.8
93507.2
107258
107458
107816
108237
108563
108612
108035
106664
104556
102005
99412.5
97105.8
95285
94042.9
93416
107239
107436
107788
108202
108522
108565
107978
106593
104462
101893
99292.1
96994.1
95187.4
93956.6
93335.6
107226
107421
107769
108176
108492
108529
107935
106539
104395
101812
99207.8
96915.2
95117.2
93893.6
93276.4
107219
107413
107759
108163
108476
108509
107913
106511
104359
101771
99165.1
96874.9
95080.8
93860.6
93245.2
106876
107182
107764
108546
109345
109989
109841
108329
105546
102096
98765.9
96021.2
93980.5
92639.6
91976.9
106879
107186
107770
108555
109357
110002
109853
108346
105570
102126
98798
96049.5
94004
92659.6
91995
106884
107193
107783
108575
109382
110029
109873
108381
105617
102196
98870.6
96110
94051.7
92698.8
92030
106890
107203
107801
108604
109419
110057
109888
108425
105669
102299
98989.4
96205.9
94122.5
92754
92077.9
106897
107215
107824
108640
109462
110080
109889
108445
105736
102456
99148.5
96330
94210.3
92818.1
92131.2
106903
107227
107847
108675
109512
110112
109928
108533
105879
102616
99339.2
96466
94297.5
92877.7
92178
106904
107232
107859
108706
109540
110147
109978
108613
105998
102727
99528.6
96571.9
94360.5
92914.4
92203.5
106900
107229
107858
108709
109550
110168
110024
108536
106027
102753
99555.8
96590.5
94366.5
92911.2
92195
106887
107214
107840
108684
109516
110121
109951
108583
105968
102687
99481.6
96520.7
94306.1
92857.4
92145.3
106869
107192
107808
108632
109463
110055
109865
108462
105801
102525
99239.2
96357.2
94183.7
92761.3
92060.8
106849
107164
107767
108575
109388
109989
109786
108325
105596
102298
98980.7
96156.6
94034.7
92642.4
91955.9
106828
107138
107729
108520
109322
109933
109738
108243
105458
102070
98751.6
95967.9
93887.6
92522.7
91848.8
106811
107117
107698
108476
109267
109878
109687
108153
105350
101905
98572.5
95816.2
93765.9
92420.2
91755.6
106799
107102
107677
108446
109229
109833
109642
108084
105263
101792
98455.8
95714.8
93681.1
92346.8
91687.9
106793
107094
107667
108432
109210
109810
109617
108049
105217
101737
98400.2
95664.9
93638
92308.8
91652.5
106060
106522
107445
108810
110482
112165
113218
111428
107181
101873
97293
93911.2
91581.6
90123.2
89423.7
106060
106524
107451
108821
110498
112180
113223
111444
107203
101907
97330
93942.6
91607.4
90145.4
89444
106062
106529
107464
108848
110538
112224
113242
111497
107278
102021
97430.8
94016.8
91663.1
90190.6
89484.1
106064
106537
107485
108892
110599
112292
113133
111584
107309
102247
97632.4
94147.6
91751.7
90257.3
89541
106068
106548
107515
108948
110688
112312
112404
111364
108163
102610
97929.4
94342.8
91870.6
90339.2
89607.3
106071
106561
107554
109039
110800
111555
112374
111469
108426
104016
98364.6
94582.6
92004.1
90419.9
89668.5
106070
106568
107577
109089
110164
111636
112435
111596
108621
104277
99766.7
94763.7
92104.4
90474.7
89705
106064
106567
107583
109099
110168
111680
112515
111587
108728
104407
99856.1
94808.5
92133.2
90481.3
89698.9
106054
106551
107559
109068
110146
111642
112453
111615
108686
104347
99807.4
94718.3
92050
90414.2
89642.1
106038
106527
107517
108995
110750
111540
112351
111485
108475
104113
98271.9
94470.8
91881.7
90292.7
89539.8
106021
106499
107461
108884
110611
112221
112328
111309
108191
102436
97742.1
94147.7
91673.6
90143
89412.1
106005
106474
107416
108809
110498
112167
112965
111362
107040
101956
97340.7
93865.6
91480.1
89994.3
89282.8
105993
106456
107382
108751
110417
112075
113031
111216
106932
101641
97052
93659.2
91326.7
89870
89172.1
105985
106444
107361
108714
110363
112012
112987
111116
106800
101459
96886.3
93529.3
91223.4
89782.8
89092.8
105981
106438
107351
108698
110340
111985
112964
111074
106743
101387
96814.2
93467.9
91172.2
89738.4
89051.8
104660
105291
106604
108697
111638
115335
119344
116833
109678
100671
94346
90436.9
87979.1
86530.5
85865.4
104657
105289
106605
108705
111655
115355
119337
116835
109685
100691
94373.7
90461.3
88002
86552.4
85886.3
104651
105287
106612
108732
111716
115430
119374
116874
109803
100816
94479.9
90530.8
88056.4
86599.4
85928.9
104643
105286
106629
108805
111892
115652
117088
117023
111438
101423
94809.8
90690.3
88151.8
86672.5
85991.8
104634
105284
106657
108884
112035
114182
117151
117118
111798
103954
95284.8
90933.5
88294.6
86766.3
86067.9
104627
105294
106716
109105
111197
114429
117310
117253
112151
104649
97808.6
91322.6
88457.4
86870.5
86142.1
104616
105283
106712
108520
111268
114591
116468
116793
112802
106037
98432
93375.9
88560.9
86926.2
86185.2
104610
105284
106771
108510
111312
114649
116571
116985
113169
106436
98790.6
93575.3
88708.4
86934.1
86188.1
104600
105267
106696
108487
111283
114615
116527
116963
113118
106407
98690.2
93498.8
88509.8
86861.4
86117
104597
105261
106680
109062
111161
114450
116439
116723
112709
104960
98053.4
91216.8
88327.9
86730.7
85999.8
104591
105238
106607
108824
111959
114189
117111
117037
111793
104191
95081.6
90714
88071.5
86545
85848.7
104588
105227
106564
108729
111798
115532
116954
116876
111406
101020
94438.9
90348.2
87831.8
86369.5
85697.7
104587
105220
106538
108645
111607
115287
119158
116637
109335
100270
93977.1
90084
87652.9
86225.7
85570.4
104587
105216
106524
108609
111532
115189
119090
116482
109115
100027
93770.9
89937.2
87536.6
86126.7
85480.4
104588
105215
106519
108597
111509
115156
119078
116423
109051
99938.1
93687.6
89870.1
87480.2
86077.1
85434.4
102435
103183
104802
107583
112023
119038
124815
130476
117247
96260.6
88722.9
85046.5
82912.6
81784.7
81306.8
102424
103173
104794
107582
112035
119049
124805
130429
117144
96151.1
88693.9
85040.2
82922.7
81802
81325.9
102404
103154
104779
107573
112056
119104
124800
130388
117042
96076.7
88683.7
85046.1
82956.8
81842.4
81366.5
102377
103132
104772
107624
112417
116952
124927
130522
117105
100686
88956.6
85087.4
83028.4
81912.4
81429.5
102341
103093
104737
107679
111218
117243
125272
128236
118677
101772
92593.7
85289.4
83113.2
81994.7
81507.6
102312
103057
104782
107299
111344
116367
123587
127485
119355
104845
93446
88105.2
83273.6
82082.2
81585.9
102279
103010
104763
107332
111481
116404
122777
127879
120803
106930
95889.8
88605.1
83373.7
82128.1
81629.9
102258
102973
104794
107387
110855
115933
122873
128309
121893
108004
96535.7
88908.8
85487.8
82092.2
81621.4
102264
102993
104742
107348
110837
116381
122854
128325
122002
108112
96522.4
88775.4
83313.8
82054.2
81554
102284
103028
104749
107246
111415
116357
122702
127859
120891
107084
95795.9
88368.2
83139.8
81930.5
81429.7
102301
103051
104692
107625
111157
117269
123377
128266
119114
104475
92904.3
85043
82860.2
81745.6
81262.5
102326
103080
104716
107562
112341
116904
124854
130336
116805
100591
88484.5
84665.9
82650.7
81565.1
81096.9
102347
103095
104716
107503
111975
119001
124665
130051
116429
95203.6
87999.7
84480.4
82474
81410.3
80958.4
102362
103109
104726
107507
111945
118931
124591
129959
116239
95069.3
87866.1
84370.4
82360.8
81306.8
80862
102370
103117
104732
107506
111930
118912
124592
129943
116214
95021.4
87799.5
84313.8
82306.4
81255.3
80813.1
99169.5
99884.1
101485
104410
109410
116331
132954
163283
122232
89221.9
78389.8
76963.4
76191.2
75949.3
75887.3
99149.6
99862.5
101460
104382
109386
116317
132911
163188
121622
88753.9
78228.5
76896.7
76181.5
75959.4
75903.4
99108.3
99813.5
101399
104289
109254
116276
132792
163033
121036
88357.1
78037.6
76823.4
76184.4
75986.3
75939.6
99050.5
99746.9
101316
104055
108659
116610
132775
162874
120714
88399.6
81560.2
76604.7
76208.5
76037.4
75998.9
98968.1
99634.7
101097
104135
108637
115699
129815
162724
121684
92675.4
81705.8
79170.7
76181.5
76102.8
76073.1
98882
99465.9
101587
104151
108359
115588
128307
157732
127389
95930.7
84930.1
79577
78242.9
76152.7
76149.8
98832
99406.3
101564
104110
108330
115093
128024
157675
130594
98833.2
87627.7
81878.5
78439.8
76246.7
76210.2
98788.1
99360.9
101606
104109
108286
114973
127775
157703
136749
102722
89099.2
82406.2
78643
76260.1
76170.7
98818.4
99391.1
101553
104122
108298
114947
127700
157539
138065
103398
89266.9
82405.9
78527.5
76171
76126.5
98857.7
99442.4
101565
104074
108315
115030
127886
157398
131131
99388.5
87786.2
81784.2
78254
75988.8
75979.8
98929.8
99594.8
101058
104077
108544
115573
128206
157546
127161
95792.3
84717.3
79163.6
75890.3
75824.4
75802.8
99004.9
99701.6
101270
104012
108486
116451
129780
162602
120131
92148.7
81084.9
76083.1
75773.5
75648.7
75631
99058.1
99763.9
101350
104241
109214
116235
132765
162782
119647
87153.6
77120.4
76136.2
75627.3
75501
75487.7
99095.8
99809.7
101410
104338
109351
116284
132859
162905
119597
86956.2
77147.6
76082.8
75530.9
75402.2
75389.1
99114.3
99830.4
101434
104366
109376
116295
132924
162970
119771
87003.9
77147.5
76058.3
75484.6
75352
75339.3
94815.4
95236.6
96180.1
97929.8
100833
107585
115023
112540
44190
59937.5
63471.7
66352
68250
69479.8
70049.4
94787.5
95204.9
96141.6
97876.2
100784
107529
114980
112452
35509.7
58652.2
63095.8
66228.6
68229.8
69487.1
70065.6
94727.7
95129.7
96050.3
97786.3
100640
107386
114848
112328
31372.8
57776.5
62900.5
66202
68246.9
69520.3
70107.1
94640.4
95009.9
95897.5
97445.9
101925
106893
114522
112139
34138.4
57810.1
64375
66368.7
68336.3
69589.8
70181
94519.8
94846.9
95632
98579.2
101582
107224
115162
111727
29529
61414.2
66365.6
68031.7
68600.7
69736.1
70285
94383.8
94689.9
96764
98393.2
102005
107332
114634
110760
29216.4
63479.6
68487.9
68663.1
70066.7
69948.2
70394.3
94325.1
94616.6
96699.7
98257.8
102188
107058
114007
109056
49586.9
68433
70565.1
70451.1
70289.5
70100.3
70486
94291.2
94569.4
96642.3
98914.1
102107
106852
113392
106308
87527.5
75905.8
72600.4
71800
70476.2
70133.7
70472.1
94313.7
94605.2
96643.3
98901.3
102096
106821
113274
105566
113342
78474.1
72881
71808.4
70348.2
70013.2
70394.8
94354.3
94660.3
96707.5
98267.4
102158
106999
113820
108353
46453.5
69830.8
70772.4
70279.6
70040.2
69759.3
70207.1
94485
94812.2
95596.5
98443.3
102009
107289
114546
110584
28122.1
63144
68222.3
68030.7
68251.8
69430.5
69992.9
94599.5
94971.4
95864
97422.1
101765
106533
114133
111935
25949.5
58681.8
63718.6
65779.4
67862.2
69172.4
69789.5
94681.9
95087
96013.6
97760.4
100646
107178
114757
112533
25420.7
56050.4
61870.5
65455.8
67644.6
69003.4
69629.6
94739.8
95161.6
96108.7
97866.2
100802
107545
115071
112859
25112.1
55969.7
61841.2
65327.3
67527.3
68895.8
69524.1
94766.8
95193.1
96148.4
97919.9
100857
107652
115202
113015
26441.7
56257.5
61936.6
65321.2
67480.1
68844.5
69472.4
89659.4
89543.3
89288.4
88907.7
88804.7
92826.2
96569
109808
12778.9
36302
49031.4
56081.2
60694.8
63409
64633.3
89629.6
89508.7
89248.2
88859.4
88767.1
92766.1
96512.9
109611
2558.97
35583.1
48757.4
56011.8
60691
63423.1
64654.9
89569.5
89437.1
89164
88800.7
88678.8
92617.8
96364.3
109478
2204.17
35098.1
48704.8
56058.1
60753.3
63485.5
64713.3
89486.5
89321.7
89035.8
88802.4
91452.1
92495.3
96061.6
109257
6031.01
35343.1
49005.4
56436.5
60930.1
63615.6
64821.1
89384
89196.3
88960.7
90794.6
91381.4
94233.1
96974.2
109067
2454.7
35596.6
50055.1
57499.1
61296
63848.6
64981.4
89277.4
89161.4
90497.8
90644.7
92521.3
94871.8
96622.5
108426
4279.96
37460
51411
58035.3
62259.9
64101.3
65146.7
89237.2
89129.6
90361.5
90566.4
93067.3
94628.4
96238.9
107946
2074.94
40173.2
52829.7
59019
62521.6
64247
65246.6
89210
89094.4
90294.1
91501.7
92971.6
94467.2
95933.4
107438
3851.68
38633
53526.6
59648.7
62632.9
64279.1
65241.2
89222.7
89115.5
90289.5
91494.1
92964.2
94449
95888.2
107344
2300.34
36222.5
53240.7
59531.9
62507.4
64140.1
65145.9
89249
89134.2
90357.9
90596
93040.1
94594.6
96160.5
107796
11190.1
38914.1
52315.1
58652.6
62204.3
63887.4
64944.6
89346.2
89159.7
88928.8
90631.6
92553.1
94865.5
96588.4
108367
3006.33
36856.3
50825
57322.2
60928.9
63532.7
64679.3
89442.8
89281.2
89000.5
88780.6
91438.1
92581.9
96133.8
109151
5394.55
35000
48792.8
55901.8
60463.9
63198.2
64428.7
89522.3
89395.2
89135.1
88792.7
88700.2
92599.7
96275.6
109396
4178.49
34478.4
47945.5
55385.7
60176.6
62980.2
64242.2
89581.2
89467.4
89222.2
88860.1
88804.5
92780.4
96561.9
109683
2597.03
34358.4
47789.5
55200.7
60026.6
62849.9
64124.5
89610.7
89502.1
89263.6
88912.3
88849.4
92908.7
96717.1
109847
3923.84
34457.7
47875.1
55165.8
59969.4
62794.5
64069.4
84420.8
83706.7
82222.8
79857.6
79441.5
78124.2
80575.8
2125.34
26533.8
40937.8
49575.1
55516.9
59063.6
60711.9
84394.3
83675.7
82186.5
79816.5
79389.1
78054.5
80498
2199.25
26584.2
40890.8
49598.2
55535.3
59087.1
60737.4
84346.8
83625
82118.1
79739.7
79349.3
77965
80338.6
2239.92
26122.4
40999.6
49680.1
55617
59162.8
60801.8
84294.8
83562.3
82027
79821.8
79553.7
77816
80083.7
2232.41
26533.5
40054.3
50053.6
55802.4
59312.3
60916.2
84248.8
83510.6
82102.3
81942.3
80028.2
79842.7
80672.3
2288
24470.3
39959.7
49950.6
56123.2
59548.2
61084.8
84206.3
83590.9
83569
82119
81291.1
80727
80514.3
2282.6
25859.6
40437.6
50293.3
56188.3
59709.8
61257
84188.4
83578.4
83511.6
82162.8
82021.4
80678.7
80403.4
6738.21
28301
41351.2
50440.6
56391.4
59777.9
61327.4
84164.5
83558
83477.7
82993.8
82087.7
80636.7
80340.5
17459.6
28952.5
41398.2
50500.9
56374.7
59782.6
61310.6
84169.6
83559.4
83471.9
82997.5
82081.2
80623
80319.6
2310.93
23049.5
40530.6
50263.5
56260.4
59659.5
61220.3
84172.8
83561.3
83502.9
82158.5
82006.9
80650.7
80364.9
4369.58
24733.2
40114.7
49920.4
56066.1
59488.7
61051
84201.4
83463.7
82061.4
81884.6
81248.5
80706.8
80501.7
2337.86
24796.4
39609.3
49636.3
55762
59240.4
60790.6
84240
83511.5
81983
79799.1
79582
77949.3
79781.6
2329.22
24773.2
39830.7
49599.5
55379.5
58928.5
60550.1
84288.7
83572.8
82080.4
79727.7
79336
77946.1
80264.7
2360.79
25893.8
40512.2
49172.3
55131.3
58713.2
60371.3
84334.7
83623.9
82152.1
79815.2
79427.1
78104.7
80536.7
2374.49
26014
40334.5
49024.4
54994.3
58584.9
60257.8
84360.8
83655.1
82189.8
79860.1
79442.1
78203.3
80704.5
2401.29
26075.5
40340.9
48957.4
54938.1
58530.8
60204.8
80035.2
78768.3
76107.8
71464.5
68970.4
60969.7
56495.7
4080.59
2175.97
25823.2
38568.4
47597.5
53671
57352
59111
80007.9
78734
76058.7
71390.4
68889.6
60833.3
56261
2672.76
2194.95
25234.8
38552.3
47601.8
53676.9
57369.8
59129
79961.9
78683.5
75973.7
71240
68770.6
60631.4
56029.2
2739.83
2220.59
21233.1
38703.7
47634.9
53734.2
57421
59172.7
79918.2
78638.9
75838.5
71116.4
68621.1
60381
55870
2375.28
2246.04
22012.5
36132.6
47801
53851
57520.1
59244.2
79895.8
78594.1
75738
74105.8
68245.6
63283.4
57714.9
2350.56
2296.02
19883.7
35082.8
46259.4
54002.5
57698.1
59364.9
79879.7
78571.6
77699.9
73914.2
70222.6
64590
57755.2
2989.41
3094.17
20822.4
34898
46412.6
53028.5
57777.1
59484.8
79856.4
78536.9
77650.5
73744.1
71059.6
64590.4
57911
2622.69
2836.17
21739.1
35308.1
45717.3
53125.8
57784.4
59510.3
79828.4
78516.5
77602.7
75157.4
71020.7
64630.4
58119.3
5392.55
2284.96
20473.8
35112.1
45322
53081.1
57758.1
59483
79830.4
78510.2
77601.1
75167.1
71009.6
64609.9
58086.7
2240.43
2197.06
18852.3
34499
45117.3
52995.8
57671.9
59408.6
79832.2
78525.4
77654.7
73758.6
71054.2
64550.2
57827.4
3070.33
3528.7
19903.6
34341.6
45300.6
52877.9
57575.8
59294.5
79829.9
78528.4
75672
74045.6
70235.7
64568.6
57742.5
3183.11
2324.12
20045.5
34220.8
45945.3
53672.5
57424.2
59092.9
79842.3
78566.1
75772.6
71069.5
68455.1
60344.9
55871.6
2286.14
2311.32
20575.6
35888.5
47409.2
53470.9
57190.6
58924.7
79880.9
78607.4
75910.3
71202.9
68651.3
60579.2
56023.1
3304.62
2368.37
21547.1
38334.3
47216.1
53324
57035.6
58796.1
79924.3
78657.3
75998
71362
68863.7
60858.6
56335.5
2395.7
2383.06
24760.2
38157
47138.2
53233.4
56943
58712.2
79950.6
78691
76047.5
71437.6
68968.5
61052.9
56599.9
2642.18
2407.78
24970.2
38216.6
47093.1
53202.7
56902.4
58672.4
77349.4
75664.2
72078.9
65737.2
54850.1
44476.8
18854.1
2262.34
2181.93
28078.5
40705.4
49309.4
54990
58427.7
60065
77312.9
75616.2
71996.7
65606.8
54625.5
44199.5
18858.8
2257.04
2196.53
27504.2
40527.3
49224.3
54956.7
58421.9
60066.1
77252.3
75545.3
71881.4
65447.6
54311.2
43716.4
18663.6
2248.97
2223.29
22278.8
40369.4
49174.1
54947.2
58428.4
60078.7
77187.6
75487.3
71725.9
65265.3
58774.3
43286.5
18643.9
2264.94
2242.83
22157.7
36325.1
49134.4
54945.4
58453.3
60106.5
77147
75445.5
71660.8
67825.2
58637.6
47150.2
25088.5
2275.26
2272.16
18924.9
34504.7
46350.7
54982.5
58534.7
60153.5
77126.2
75402.8
73275.1
67734.4
60838.9
49016.4
25891.4
2284.29
2271.69
19472.3
33696.4
46294.3
53063.7
58564
60207.7
77088
75349.7
73277.4
67629.3
61796.9
49077.5
26198.8
2295.32
2837.81
19260.2
33614.7
44881.7
53043.5
58540.6
60198.1
77053.2
75320.7
73246.8
69000.6
61730
49157.4
26483
2662.03
6195.03
16203.1
33089.4
44118.2
52980.3
58502.1
60169
77049
75306.9
73236.8
68990.8
61705.6
49114.8
26433.2
2299.74
2264.65
16573.7
32904.2
44008.6
52936.3
58446.1
60110.3
77056.2
75329.8
73261.5
67610
61747.7
49000.6
26009.4
2287.82
2338.51
18827.7
33188.5
44666.6
52903.2
58391.1
60043.5
77051.9
75347.2
71553.3
67789.8
60790.3
48970.3
25854.6
2291.06
2307.92
19189
33343.4
46038.8
54700.6
58288.6
59918.3
77078.8
75378
71616.3
65162.5
58670.5
43319
20322.4
2280.84
2292.67
20149.7
36105.5
48796.3
54625
58152.2
59814.1
77136.2
75430.8
71772.7
65355.4
54256.9
43588.6
18724.2
2256.42
2374.42
21953.5
40048.1
48783.9
54582.9
58079.4
59738.6
77193
75499.9
71890
65524.6
54596.4
44065.3
18864.2
2248.78
2391.92
26878.8
40136.9
48765.9
54552.1
58035.9
59691.5
77227.6
75546
71970
65650.6
54813.2
44429.9
19201.1
2257.73
2413.24
27256.3
40280.8
48793.3
54560
58019.9
59671.2
77012.8
75286.3
71586
65142
54165
41402.6
6912.77
2281.87
7951.3
35237.4
46823.7
54312.9
59111.8
61947
63286.6
76963
75219.8
71462.1
64902.2
53825.1
40469.6
5771.68
2242.16
4784.19
34626.9
46430.4
54134.9
59030.6
61915
63269.4
76885.4
75126
71299.2
64654
53809.6
39311.8
7550.63
2265.91
2218.48
26577.8
46292
54031.5
58961.5
61884.7
63253.9
76804.3
75051
71167.2
64521
55900.4
38519.8
8981.55
2265.96
2230.8
26312.4
40919.5
53922.2
58887.8
61858.1
63246.3
76754.1
75023
71189.8
65919.9
55571.5
41018.2
18164.3
2280.05
2280.51
21634.4
38253.7
50252.1
58912
61897.2
63258.8
76734.3
75018.1
71960.9
65783.6
56980.9
42164.9
18267
2282.01
2280.35
21862.9
36885.7
50081.4
56289.6
61938.5
63290.5
76686.3
74959.8
71936.1
65699.1
57603.4
42136.8
18163.2
2350.54
2275.5
21483.7
36581.2
48102.7
56214.5
61913.3
63269.7
76648.5
74921.5
71912.8
66577.2
57491.2
42169.8
19811.2
11263.6
2420.24
18985
35991.6
47037.2
56143.4
61876.4
63243.9
76629.2
74893.4
71897.8
66554.1
57443.4
42049
18325.1
2410.69
2299.05
18949.9
35912.7
46984.9
56128.1
61832.9
63193.6
76634.7
74909.6
71886.1
65642.4
57495.3
41990.7
18117.1
2317.05
2339.51
21247.4
36375.4
48008.2
56142.8
61786.2
63145.1
76621
74878.7
71019.1
65785.4
56854.3
42064
18255.8
2290.74
2325.6
21754.2
36695.1
49954.5
58660.7
61676.2
63048.7
76653.3
74892.1
70992.9
64329.1
55562.8
38717.2
17547.4
2280.46
2320.19
23220.3
40588.6
53613.3
58597.7
61585.3
62983.1
76724.7
74960
71124
64471.9
53633
38798.3
8306.93
2277.35
2383.75
26104.5
45881.4
53653.1
58624.7
61564.7
62946.3
76797.5
75051.1
71288.9
64729
53676.8
40394.1
5723.35
2256.77
2917.05
34238.6
46019.8
53674.1
58656.3
61559.3
62929.2
76844.3
75114.2
71407.9
64948.5
54009.5
41038.7
6143.75
2243.57
4340.06
34830.2
46265.2
53779.7
58706.4
61568.2
62927.3
79225.2
77953.4
75268
70908.8
61940.6
52178.6
15851.4
2245.21
34696.5
52771
57844.3
62688.1
65683.8
67445.5
68298.3
79162.6
77863.2
75089.3
70468.6
60898.6
50281.1
2359.61
2284.27
32958.5
52171.1
57279
62458.1
65571.2
67394.4
68266.9
79071
77746.9
74886.7
69980.9
62485.5
47203.2
14615.9
2340.57
10122.9
40083
57226.6
62235.3
65452.3
67348.3
68238.7
78978.6
77634.7
74674.9
69693.8
61271.3
45405.3
15617.7
2299.33
2231.57
37385.3
50733.2
62113.4
65309.5
67304.2
68218.6
78922.7
77583.2
74664.1
69357
60398
45463.9
20871.3
2253.13
2260.65
29860.9
47315.6
58013.7
65469.3
67354.9
68233.2
78904.1
77603.7
74344.3
69044
60359
45404.9
20472.3
4069.84
2271.37
29918
45431.8
57871.6
62479.5
67457.2
68282
78849
77541.6
74228.1
68896.8
60309.9
45013
20251.2
2170.19
6093.94
29380.2
44973.2
55516.5
62387.9
67451.7
68267.6
78809.5
77493
74179.7
68967.6
60077.6
44736.2
19584.3
2120.28
9800.07
27429.2
44411.2
54251.3
62370.4
67428.6
68250.2
78767.7
77448.8
74150
68919.5
59993.8
44620.5
19767.7
2347.19
2259.28
27525.1
44422.4
54234.5
62353.6
67382.1
68201.4
78770.1
77452
74146.4
68775.6
60093.7
44751.8
19971.7
2249.31
2345.46
29226.5
44890.6
55476.3
62329.4
67318.4
68152
78747.1
77385.1
74416.5
68959.5
60110.3
45154.3
20269.4
2333.5
2358.39
29489.4
45256.4
57756.6
65195.2
67147.3
68042.4
78781.6
77420.5
74424
69382.7
60443.1
44821.7
19908
2292.9
2355.21
32007
50221.8
61811.9
65063.1
67056.9
67980.4
78863
77525.1
74636.1
69685.6
62142.6
45990.7
15150.6
2336.44
7295.33
37998.7
56757.8
61860.4
65139.9
67057
67961.4
78949.5
77638.8
74841.7
70182.3
60579.5
49897.3
2587.23
2360.55
31444.3
51798.7
56756.2
62021.6
65229.3
67071.1
67961.3
79008.5
77723.8
75011.4
70584.3
61483.5
51616.4
12866.8
2390.23
33874
52796.9
57193.5
62227.3
65321.5
67098.8
67972.6
83455.4
83003.3
82148.9
82007.3
80820.5
89843.2
126500
117846
92745.3
78987.9
73707.8
73860.4
73948.5
74230.6
74444.4
83386.1
82891.5
81934.8
81458.2
79560.3
88280.5
124793
101285
88904
77795.8
73026.4
73599.7
73818.9
74175.7
74412.9
83284.8
82742.4
81679.9
80109
79021.2
71530.1
69435.8
50158.3
52902.8
64896.1
72333.1
72996.2
73649
74118.9
74378.9
83181.3
82590
81339.7
79550.9
73749
65836.5
45056.7
11872.3
24889.5
60544.6
66532.5
72709.2
73477.8
74073.4
74354.1
83118.3
82505.6
81254.4
77307.5
72808.6
61993.5
36909
2213.62
12867.7
49495.4
62872
69277.3
73564.9
74117.4
74373.6
83098.1
82502.7
79792.4
76995.7
71003.8
60020
34969.6
2340.07
25824.4
49157.3
60724.6
69290.2
70984
74169.2
74437.3
83038.2
82437.3
79627.6
76883.4
70187.4
59171
33384.8
2280.38
12970.2
47695.6
60177
66961.2
70983.5
74172.9
74428.1
82997.7
82388.2
79553.7
75906.9
69833.5
58451.5
31746.6
2186.87
2496.86
45553.7
59680.9
65542.5
71006
74169.4
74428.2
82937.7
82325
79496.5
75821.9
69649
58132
32389
2661.67
5133.58
46598.2
59887.9
65556.9
70978.8
74121.7
74379.3
82935.6
82320.4
79481.3
76611.8
69731.3
58364
32500.7
2304.22
13189.7
48297.7
60340
66912.2
70908.5
74057.2
74328.8
82905.7
82260.8
80934.7
76655.6
70502.1
59270.9
34210
2338.28
12722
48633.3
60555.2
69044
73350
73937.9
74205.5
82944.9
82328.2
81022
79138.9
72507.9
64055
36976
2367.15
12933.6
52816.3
65844.6
72383.3
73195.4
73840.2
74138.9
83037.1
82473.8
81366.3
79716.6
78514.3
67254.1
51982
33231
46575.5
62304.4
71863.9
72674.6
73372.3
73857.6
74130.4
83134.3
82621.9
81625.8
81068.6
79011.5
87220.6
122230
96513.3
87529.3
77262
72467.4
73230.7
73513
73884.2
74138.5
83200.6
82729.4
81833.5
81620.7
80191.6
88913.3
125811
109998
91615.5
78536.4
73061.2
73514.9
73624.3
73922.2
74158
88525.7
88891.9
89601.1
92665.7
96977.9
103262
127653
129483
113176
96740.2
88228
84628.8
82217.8
81226.9
80844.5
88476.2
88808
89502.3
92494.4
96823.2
103965
133532
137452
115469
96623.3
87935.8
84493.1
82134.6
81190.9
80823.2
88393
88641.3
89368.4
91068.8
95791.7
99393.2
124912
155752
122515
95276.8
87154.3
83830.4
81998.5
81132.1
80793.9
88301.7
88494.8
89013
90387.9
90375.7
97042.9
118878
162264
120411
93430.9
85044.7
83285.2
81811.2
81080.3
80769.4
88244.2
88407
88798.7
87606.7
89049.4
90013
94805.6
138481
94809.6
86232.2
83171.6
81744.6
81730
81083.6
80774.6
88225.9
88292.5
86905.9
87263.4
86762
86795.3
88343.1
75189.8
76490
84283.2
81917.3
81563.2
80316.9
81019.7
80804.8
88163.9
88205.6
86863.4
87064.1
85403.5
86307.8
88302.7
67594.4
73686.5
82761.2
81341
80408.6
80317.1
80994.4
80795.4
88126.8
88160.4
86780.3
85745.4
84953.4
85434.3
88542.3
52677.1
62486.2
81431.6
80813.5
79614.9
80235.9
80996.1
80799.4
88054.3
88088.3
86705.4
85598.7
84606.2
84184.4
80195.4
48150.6
105969
85089.3
81158.7
79617.8
80236.5
80965.6
80756.8
88046.7
88089.6
86646.6
86690.8
84514.3
83995.2
79687.6
46231.6
96034.6
86181.1
81452.6
80265.4
80233.9
80944.5
80716.6
88008.9
88140
88450.5
86945.1
85816.2
85062.5
85089.3
88443.8
88306.6
85233
81434.2
81276.5
81554.2
80928.6
80629.4
88041.6
88207.7
88665.8
89948.7
89119.7
94110.9
101789
143616
97419.6
88311.5
84220.4
82974.4
81581.2
80870.9
80578.4
88122.9
88350.2
89034.6
90667.8
95317.2
98305.3
124578
162086
121610
94299.7
86712.9
83545.5
81736.9
80909
80579.8
88204.5
88520.4
89180.7
92116.1
96394.9
103370
133434
137594
115695
96133.3
87458.3
84179.8
81853.1
80934.7
80583.9
88254
88608.6
89287.8
92357.7
96730.9
102679
129367
131036
113999
96063.8
87711
84348.6
81918.5
80958.4
80593.1
93078.3
93811.5
94904.9
97742.9
101820
101837
106265
111435
107461
100325
95390.1
91633.9
88678.9
87243.2
86554
93093.8
93831.2
95041.9
98166.2
102736
103666
110263
115845
109702
101208
95870.8
91811.2
88729.7
87262.8
86564.4
93099.7
93772
95300.8
98054.4
102877
106123
112874
126189
113784
104175
96098.8
91740.5
88810.2
87266.8
86577
93084.8
93747.4
95253.6
98375.3
100498
108985
122887
140377
125890
106520
96752.3
91748.1
88823.3
87270.2
86587.8
93065.7
93718.5
95227.5
96070.4
100815
108293
126096
163016
136509
110865
97697.7
91473.3
88902.4
87310.3
86608.9
93042.8
93559.4
93694.9
95974.3
99156.9
107600
129215
175605
142586
117607
99304.2
91774.1
88245.6
87245.4
86631.8
92995.2
93493.6
93656.2
96003.7
98457.8
108723
136787
167343
137128
122694
99764.1
91600.9
88325.4
87267.7
86645.3
92961.7
93445.3
93603.1
94735.6
98403.6
108417
131143
175784
133856
112738
98543.9
91351.7
88379.8
87278.3
86663.5
92880.4
93354.4
93520.8
94600.2
98179
107867
126854
129490
145370
113415
98729.1
91477.2
88380.7
87239.5
86606.9
92850.5
93326.5
93447.7
95563.9
97846.7
107322
126297
163865
145764
113419
98453.7
91515.4
88263.6
87175.4
86556.1
92819.3
93433
94828.3
95543
98345.5
106159
125908
169782
140565
111181
97468
91315.1
88714.8
87170.7
86487.4
92817
93453.6
94900.4
97941.1
100025
109229
125404
161317
134037
108158
96449.8
91492
88628.1
87100.1
86428.9
92825.8
93483.3
94985.3
97711.3
102588
107424
117256
132187
116717
104961
95788.4
91508.6
88587.4
87071.9
86389.3
92821.2
93551.3
94751.8
97865.3
102570
103566
110955
117225
110038
100952
95617.3
91578.2
88490
87044.5
86355.9
92809.4
93545.6
94639.8
97502.1
101970
101820
107609
113543
108065
100009
95194.5
91424.7
88422.8
87018.2
86335.3
96383.9
97048.3
97837.9
99231.4
101926
101660
102170
106908
102862
99852.8
97665.4
95102.4
92880.8
91685.3
91004.9
96471.4
97168.1
98096.1
99832.9
102903
102967
104588
106614
104306
100967
98355.3
95435
93040.3
91765
91057.7
96602.2
97267.2
98602.3
100583
103794
105527
109525
114961
109625
103729
99073.6
95819.6
93314.8
91863.6
91139.5
96715.9
97445.9
98938.1
101663
103655