/*--------------------------------*- C++ -*----------------------------------*\
| =========                 |                                                 |
| \\      /  F ield         | OpenFOAM: The Open Source CFD Toolbox           |
|  \\    /   O peration     | Version:  v2012                                 |
|   \\  /    A nd           | Website:  www.openfoam.com                      |
|    \\/     M anipulation  |                                                 |
\*---------------------------------------------------------------------------*/
FoamFile
{
    version     2.0;
    format      ascii;
    class       volScalarField;
    location    "0.005";
    object      p;
}
// * * * * * * * * * * * * * * * * * * * * * * * * * * * * * * * * * * * * * //

dimensions      [1 -1 -2 0 0 0 0];


internalField   nonuniform List<scalar> 
449343
(
90701.8
90880.8
91192.8
91542.4
91782.8
91756.2
91189.6
90019.4
88280.7
86164.5
83953.7
81923.3
80272.3
79120.7
78531.7
90685
90864.2
91176.4
91526.2
91766.1
91738.1
91170.8
90000.7
88263.5
86149
83939.3
81908.5
80256.5
79104
78514.4
90670.5
90850.2
91163
91512.7
91751.6
91720.3
91151.4
89981.8
88247.2
86136.4
83929.3
81898.3
80244.4
79089.8
78499.2
90657.9
90838.2
91151.7
91501.1
91738.1
91701.1
91130
89959.5
88228.9
86123.9
83922.1
81891.7
80235.1
79077.8
78485.5
90646.1
90827.1
91141.4
91490.2
91724.3
91679.7
91105.1
89934.4
88208.5
86111.6
83916.8
81887.4
80227.8
79067.1
78472.9
90633.8
90815.5
91130.6
91478.6
91710.4
91659.8
91081.8
89911.7
88190.5
86101.3
83912.2
81883.8
80220.8
79056.5
78460.3
90619.5
90801.9
91117.5
91465.3
91694.8
91641.5
91061.6
89890.9
88174.3
86091.5
83904.5
81878.1
80211.8
79044.4
78446.7
90602.2
90784.8
91100.7
91448.7
91677.4
91623.4
91039.1
89866.3
88150.1
86074.6
83890.9
81865
80197.6
79029.2
78431
90581.4
90763.8
91079.6
91427.6
91657.3
91604.6
91024.8
89854.7
88138.6
86056.7
83870.2
81843.8
80177.6
79010.3
78412.6
90557.5
90739.4
91054.7
91403.2
91635.6
91586
91008.9
89839.8
88119.6
86031.2
83842.7
81814.8
80152.1
78988
78391.9
90531.6
90712.8
91027.6
91377
91612
91568.8
90995.6
89826.4
88101.8
86006.1
83812.2
81783.5
80124.3
78963.9
78369.8
90505
90685.6
90999.7
91349.9
91588.1
91552.7
90983.3
89814.6
88085.8
85982.4
83781.8
81752.2
80096.2
78939.2
78347.1
90479.1
90659.1
90972.6
91323.3
91563.5
91534.3
90967.3
89799.7
88067.2
85958.2
83752.5
81722.5
80069.3
78915.1
78324.6
90454.7
90634.3
90947.3
91298.2
91539.5
91513.8
90948.7
89781
88045.9
85933.4
83725.2
81695.6
80044.3
78892.2
78302.8
90432.6
90611.9
90924.7
91275.6
91517.4
91493.3
90928.9
89761.1
88024.8
85910.6
83701.4
81672.1
80021.9
78870.8
78282
90502.2
90729.9
91143.3
91651.9
92090.4
92282.5
91868.7
90659.5
88689
86244.4
83735.6
81498.5
79727.1
78513.5
77898.8
90485.4
90713.5
91127.6
91636.7
92075
92265.3
91849.7
90640.9
88672.7
86230.9
83723
81484.8
79711.5
78496.4
77881.1
90471.2
90700.1
91115.6
91625.5
92063.2
92249
91830.5
90623
88659
86223.4
83718
81477.1
79699.8
78481.8
77865.1
90458.9
90689.1
91106.5
91617.3
92052.6
92230.4
91804.8
90594.3
88639.7
86215.7
83718
81474.5
79691.4
78469.1
77850.5
90447.6
90679.4
91099.2
91610.5
92042.4
92203.6
91772.1
90562.1
88604.4
86207
83722.1
81476
79685.4
78457.8
77836.6
90435.9
90669.4
91091.7
91604.2
92033
92185.4
91745.4
90536.6
88590.1
86199.2
83727.4
81479.7
79680.5
78446.8
77823
90422.3
90657.1
91081.7
91594.8
92018.3
92173.1
91726.3
90515.6
88575.7
86198.1
83740.9
81482.9
79673.5
78435
77808.8
90405.1
90640.4
91065.6
91580.1
92003.1
92155.1
91703.5
90440.8
88543.7
86178.9
83729.7
81471.7
79659.5
78420
77793
90384.1
90619
91043.8
91557.2
91980.7
92136.3
91689.7
90479.4
88540.1
86163.8
83707
81449
79639.5
78401.1
77775
90359.6
90593.2
91015.8
91528.9
91958.4
92111.6
91672.7
90465.1
88519.8
86129.5
83658.4
81411.3
79612.4
78378.9
77755.2
90333
90565
90985.2
91497.3
91930.2
92092.9
91662.9
90454.6
88498.3
86102.4
83618.5
81373
79582.8
78355.5
77734.4
90305.8
90536.3
90954.4
91466.1
91902.6
92082
91658.4
90450
88497.5
86075.3
83578.9
81336.2
79553.6
78331.7
77713.1
90279.5
90508.9
90925
91436.1
91875.1
92063.2
91646.8
90441.6
88480
86046.5
83542.6
81302.6
79526
78308.4
77691.8
90255
90483.5
90898.4
91408.7
91848.5
92041.2
91628.2
90422.1
88456.3
86016.7
83510.5
81273.3
79500.7
78286
77670.8
90232.8
90460.9
90875.2
91385.1
91825.1
92019.8
91608.4
90402.1
88434.3
85992
83484.9
81249
79478.2
78265
77650.5
90001.1
90340.2
90986.8
91868.2
92809.7
93556
93602.3
92294.1
89700.6
86393.3
83150.1
80439.6
78402.8
77054.2
76384.6
89984.3
90324.2
90972.3
91855.3
92797.3
93541.7
93584
92277
89687.5
86384.9
83141.6
80427.5
78387
77036.4
76365.9
89970.2
90311.8
90963.2
91849.9
92792.9
93531.9
93561.7
92261
89679.1
86391.6
83148.8
80424.6
78375.5
77020.4
76348
89958.3
90302.5
90959.2
91851.3
92795.1
93518
93522.9
92236.6
89646.9
86398.8
83172.2
80432.1
78368.1
77005.7
76330.6
89947.8
90295.5
90959.1
91856.9
92793.1
93482
93425.8
92126.1
89567.9
86413.5
83199.6
80445.1
78364
76992.1
76313.5
89937
90289
90960.4
91861.7
92797.7
93453.9
93386.6
92100.3
89557.8
86421.7
83247
80465.2
78361.2
76979.4
76296.8
89924
90278.9
90955
91868.4
92788.4
93452.4
93360
92071.9
89542.4
86425.2
83349.6
80486.6
78360.1
76966.8
76280.4
89907.4
90263.8
90941.4
91858.2
92781.8
93453.8
93375.8
91974.8
89514.1
86407.7
83340.3
80477.4
78347.5
76952.6
76264.4
89885.7
90240.6
90916.9
91830.8
92751
93415.4
93323.7
92036.9
89507.8
86391.3
83315.9
80453.1
78326.5
76933.3
76247.1
89860.4
90212.6
90884.4
91786.3
92723.2
93380.5
93314
92029.1
89488.3
86353.2
83179.5
80398.3
78294.5
76912.8
76230.3
89832.8
90180.8
90844.9
91743.6
92680.9
93371.2
93317
92019.8
89464.2
86310.9
83098.2
80344.3
78263.5
76891.7
76213.2
89804.9
90149.4
90806.8
91700
92645.3
93369.7
93377.4
92093.9
89506.9
86260.9
83035.9
80296.6
78232.9
76870.7
76195.7
89778.2
90120.1
90772.4
91660.4
92605.1
93345.9
93379.1
92081.7
89502.8
86217.7
82976.6
80253.4
78204.8
76849.8
76177.6
89753.5
90093.8
90742.8
91627.2
92571.2
93317.6
93363.3
92060.2
89474.1
86174.2
82932.8
80219.6
78179.6
76829.2
76158.8
89731.3
90070.8
90718.3
91601.2
92544.9
93293.3
93343.1
92038.9
89449
86144.6
82903.2
80193.8
78157.4
76809.1
76139.6
89064.3
89565.9
90563.1
92034.5
93863.7
95719.7
96971.1
95494.9
91508.2
86393.5
81891.7
78500.9
76128.8
74626.7
73900.9
89046.8
89549.8
90549.6
92024.7
93856.7
95711
96949.1
95480.9
91497.4
86392.5
81888.1
78488.9
76111.3
74606.9
73880.1
89031.7
89537.5
90543.7
92028.7
93867.8
95715.5
96933.9
95480.9
91521.3
86434.6
81911.6
78487.7
76096.6
74586.9
73858.3
89018.5
89528.9
90546.3
92049.5
93894.6
95738
96779.3
95485.5
91469.3
86550.2
81987.1
78502.3
76085
74566.5
73835.1
89006.8
89523.8
90556.4
92078.6
93940.9
95692.4
95883.6
95033.2
92053
86650.8
82068
78530.4
76074.9
74544.7
73810.3
88995.5
89520.5
90576
92137.9
93987.7
94845.4
95778.2
94993.4
92078.3
87789.2
82223.7
78572.8
76070.8
74523.5
73785.9
88981.8
89514.1
90583.1
92166.8
93332.2
94878.5
95737.8
94940.8
92036
87804.6
83422.4
78594.2
76062
74504.1
73763
88964.5
89501.1
90576
92162.1
93310.4
94888.3
95753.7
94830.3
92011.8
87799.6
83386.1
78585.1
76060.2
74492.8
73744.9
88943.2
89475.6
90544.6
92128.9
93285.7
94854.5
95706.6
94886.5
92001.5
87776.9
83375.3
78561.1
76028.3
74471.1
73730.7
88918.7
89443.9
90499.9
92062.3
93912.7
94781.7
95686.3
94895
91983.3
87748.5
82159.5
78508.6
76006.8
74459.4
73721.5
88891.3
89408.6
90441.7
91964.8
93828.6
95581.8
95763.6
94918.8
91975.8
86551.5
81970.2
78433.2
75977.8
74447.4
73712.9
88864.5
89375.2
90393.4
91897.7
93744.6
95589.3
96636
95346.2
91334
86417.5
81855.8
78371.4
75954.1
74435.6
73704.2
88839
89345.2
90352.3
91838.6
93679.8
95530.5
96752
95304.5
91348.6
86265.9
81745
78321.9
75930.9
74421.1
73692.4
88815.3
89318.7
90319.5
91796.1
93630.3
95487.5
96730
95267.6
91289.2
86188.2
81685.8
78287.1
75909.5
74405
73678.1
88793.7
89295.8
90294
91767
93598.6
95457.6
96713.4
95243.6
91261.8
86151.3
81651.6
78261.4
75889.4
74387.1
73661.1
87488.7
88168.8
89571.6
91783.7
94890
98860.3
102962
100935
94287.1
85588.7
79285.6
75274.7
72691.5
71136.6
70411.9
87469.1
88150.7
89557
91775.6
94888.9
98861
102948
100926
94298.9
85608
79286.4
75258.3
72668.9
71112.9
70387.9
87449.8
88135
89549.7
91786.1
94928.1
98903.3
102956
100929
94353.4
85663.3
79309.9
75243.7
72642.7
71084.6
70359.3
87430.6
88122
89553.5
91843
95076.9
99031
100629
100977
95778.1
86175.9
79493.3
75260.7
72615.3
71052.3
70325.9
87411.4
88110.4
89570.1
91908.8
95207
97498
100627
100893
95859.9
88242.4
79624.8
75261.4
72578.1
71009.1
70286.1
87393.8
88108.7
89615.1
92105.1
94317.7
97662
100650
100757
95804.3
88412.7
81725.6
75324.1
72536.4
70972.9
70247.3
87372.2
88088.7
89600.4
91506.5
94354.2
97748.1
99661.5
99979.3
95993
89320.8
81909.9
77122.4
72454.9
70918
70206.8
87355.5
88078.6
89649.7
91484.3
94375.3
97758.3
99672.7
99943.3
96003.3
89354.9
81980.7
77166.7
72554.5
70897.4
70191.3
87332.9
88049.6
89561.3
91452.4
94345
97731.3
99632.7
99932.7
95961.1
89334.5
81946.9
77140.2
72422.2
70887.1
70176.3
87316.8
88032
89538.8
92029.3
94242.6
97621.1
99633.6
99927.4
95937.6
88394.2
81741.1
75263.6
72476.3
70912.1
70185.6
87295.1
87994.3
89454.5
91794.2
95094
97430.6
100506
100667
95685.2
88266.5
79532.8
75169.6
72485.9
70916
70193.2
87275.8
87967.5
89399.8
91690.5
94926.6
98883.7
100458
100819
95745.8
86051.1
79369.5
75136.7
72490.5
70927.1
70200.1
87256.1
87941.8
89357.3
91595
94739.1
98717.9
102774
100771
94188.1
85503.7
79151.9
75085.6
72483.9
70925.3
70199.7
87236.5
87918.6
89325.9
91546.1
94661.8
98637.6
102727
100724
94098.5
85414.3
79094
75065.3
72475.1
70918.3
70192.8
87217.1
87897.7
89301.6
91515.4
94624.1
98598.5
102704
100691
94048.8
85357.5
79055.8
75044.3
72460.2
70904.6
70179.5
85015.4
85827.4
87564.2
90488.5
95052.7
102247
108299
114679
102312
81889.6
74172.5
70219.3
67811.8
66474.5
65885.3
84991.4
85804.4
87544
90476.2
95057.1
102253
108288
114661
102301
81896.4
74160
70188.2
67780.4
66445.7
65857.5
84962.8
85778.2
87523.3
90463.3
95077.5
102308
108291
114636
102264
81840.5
74102.2
70117.4
67728.3
66403.4
65819.8
84930.2
85752.4
87513.8
90509.6
95438.8
100162
108446
114702
102165
86013.4
74201.7
69995.3
67664.3
66353.8
65772.8
84891
85711.8
87481.8
90570.2
94231.7
100422
108706
112121
103275
86747.8
77371.1
69875.2
67511
66267.5
65711.6
84856.9
85673.8
87527
90184.3
94362.3
99516.8
106862
111034
103301
88894.7
77483.5
72234.2
67380.6
66168.4
65647.3
84818.5
85624.7
87508.8
90220
94501.1
99516.3
105924
110934
103645
89771.1
79126.8
72250.5
67250.2
66074.9
65587.3
84785.7
85575.1
87535.5
90268.5
93864.6
99026.9
105924
110886
103588
89746.2
79093.5
72246.2
69209.5
65996
65555.4
84778.6
85585.4
87470.5
90219.3
93839.4
99476.9
105905
110869
103575
89736.7
79083.3
72195.9
67225.7
66046.5
65558.1
84779.7
85596.6
87449.6
90098
94403.3
99466
105848
110889
103605
89745.4
79116.7
72218.9
67321.7
66111
65589.8
84773.1
85594.1
87364.7
90454.5
94123.5
100414
106678
111920
103217
88721.7
77406.9
69792.4
67426.9
66181
65624.3
84774.2
85596.9
87359.2
90355.6
95286.6
100059
108344
114568
102029
86051.3
74088.3
69880.3
67546.5
66235.2
65654.1
84767.7
85583.4
87329.4
90270.8
94886.5
102120
108135
114447
102086
81697.4
73957.5
69970.5
67578.8
66253.2
65668.4
84757.4
85570.9
87311.5
90245.3
94828.2
102028
108071
114447
102120
81720.8
73982.1
70007.5
67597.2
66260.4
65671.2
84742.3
85554.9
87292.8
90218.7
94784.9
101983
108043
114434
102089
81678.2
73957.7
70001.5
67591.3
66252.2
65662
81405.7
82208.2
83970.4
87093.1
92224.4
99214.4
115754
146557
108427
75551.9
64543.3
62526.2
61246.2
60644.1
60397.2
81375.6
82177.5
83938.6
87060.2
92199.4
99195.4
115716
146526
108405
75521.3
64492.3
62467.7
61206.3
60611.7
60367.5
81332
82129.1
83883.6
86981.5
92086.7
99168
115621
146460
108368
75476.7
64341.7
62350.5
61130.7
60557.2
60324
81276.7
82068.2
83813.7
86765.6
91520.2
99556.3
115620
146262
108090
75490.4
67802.5
61979.1
61011.5
60478.8
60266.5
81198.9
81967.2
83616.2
86851.5
91540.8
98690.1
112803
146142
108928
79179.4
67453.3
64259
60721.4
60361.1
60188
81115.9
81805.5
84127.1
86908.6
91300.2
98648.4
111390
141073
113242
81043.3
69595.6
64033.1
62502.7
60186.1
60103.5
81066.7
81750.7
84117
86898.3
91316.2
98238.4
111269
140930
113138
80982.6
70746.8
65587.7
62403.2
60125.5
60051.3
81008.9
81695.1
84160.7
86909.3
91297.6
98197.1
111206
140866
113123
80960.9
70704
65543.1
62389.8
60105.5
59991.8
81025.4
81708.9
84091.8
86905.6
91298.9
98179.6
111188
140848
113099
80946.1
70697
65546.3
62340.4
60099.8
60023.6
81038
81728.2
84069
86811.4
91271.2
98181.2
111219
140886
113105
80949.2
70710.3
65566.6
62410.4
60134.3
60051
81079.1
81847.1
83497.3
86740.1
91432.6
98599.4
111313
141005
113197
80989.3
69671.4
64080.5
60644.5
60281.6
60107.4
81118.7
81911.3
83657.5
86609.3
91262.6
99316.4
112735
146005
108160
79325.5
67602.7
61875.2
60905
60370.1
60156.3
81135
81932.1
83687.5
86787.2
91893.2
98998.6
115429
146176
108178
75360.9
64216.1
62217.7
60994.4
60417.3
60182.3
81139.7
81942.2
83704.4
86827.5
91967.7
98978
115467
146278
108241
75391.2
64334
62302.5
61035.5
60437.6
60191.8
81130.6
81933.6
83697.1
86821.2
91953.4
98945.1
115480
146293
108240
75354.3
64349.3
62324.8
61039.3
60433.5
60184.9
76566.6
77118.4
78307.2
80375.7
83548.5
90293.1
97399.4
93391
22219.3
47450.9
50535.5
52263.8
53324.9
53995
54287.2
76532.3
77081.8
78266.8
80324.2
83504.1
90243.8
97355.2
93280.2
22194.4
47410.7
50440.6
52207.7
53293.4
53967.3
54261.9
76477.8
77016.5
78193.9
80263.2
83392.4
90139.7
97251.4
93175.5
22250.3
47388.4
50332.6
52157.9
53244.9
53926.3
54228.8
76401.2
76913.1
78073.5
79987.7
84676
89751.3
96990.7
93004.1
22282.1
47443.2
51969.4
52169.8
53184.1
53865.4
54189.1
76291.9
76767
77835.6
81146.7
84442.3
90191.9
97831.3
92798.7
23573.5
50801.1
53509.2
53695.6
53143.5
53813.9
54138.7
76160.2
76610.5
79051.1
81032.5
84918.8
90435.9
97609.3
92489
23811.9
51099.5
54434.7
53699
54501.5
53804.7
54089.6
76104.5
76541.5
79035.3
80949
85161.2
90351.8
97474.5
92317.6
23433.9
51108.8
54501.2
54736.3
54427.7
53817.9
54080.5
76062.6
76488.9
78986.4
81578.3
85142.2
90300.5
97401
92172.5
23910.6
51120.1
54513.3
55323.2
54434.2
53826.9
54051.5
76065.1
76501.6
78967.2
81549.5
85122.9
90281.7
97382.3
92172.8
23557.3
51101.1
54502.3
55310.6
54385.7
53795.4
54056.6
76078.7
76528.8
78983.3
80894.7
85098.5
90297.1
97421.5
92263.8
23483
51088.7
54469.3
54705.6
54399.1
53757
54041.8
76170.6
76646.2
77716.3
80978.8
84836
90344.4
97525.5
92407.5
23951.8
51047.7
54367.1
53568.2
53074.5
53742.4
54065.6
76241.2
76753.1
77913.4
79830.3
84437
89309.6
96597.7
92719.4
22996.9
49150
51766.4
52080.8
53090.8
53767.3
54088.7
76278.1
76817.5
77995.9
80065.6
83196.8
89750.7
96897.5
92837.4
22247.8
47276.3
50225.7
52043.8
53122.3
53797.8
54098
76293.6
76844
78030.5
80090.4
83271.5
89980.4
97063.1
92959.8
22169.8
47304.6
50308.3
52059.6
53136.9
53805.9
54098
76288.7
76841.4
78031.8
80102.1
83276.3
90012.5
97107.9
93014.5
22146
47300.2
50366
52080.4
53132.8
53797.4
54087
70716.1
70797.3
70933.1
71122.8
71617.4
76063
79777.7
92411.6
2325.54
27312
36942.2
42132.4
45476.2
47402.8
48253.3
70684.2
70763.2
70898.5
71087.2
71602.8
76017.9
79731.9
92189.9
2405.52
27270.2
36876.3
42123.9
45468.9
47389.1
48239.6
70637.9
70710
70843.6
71071.9
71583.4
75922.3
79636.2
92104.6
3141.53
27267.6
36880.2
42150.6
45476.4
47389.3
48234.6
70576.1
70624.4
70773.1
71151.6
74271.6
75870.3
79432.2
91958.1
2345.16
27415.3
37593
42432.9
45536.7
47410.6
48246.4
70492
70517.4
70730
73133.3
74341.1
77617.1
80452
91913.6
3116.62
27634.5
38435.1
43523.5
45737.2
47481.4
48275.2
70392.5
70480.6
72389.8
73082.5
75573
78382.3
80321.9
91575.3
2806.17
27934.2
38874.6
43622.2
46657.8
47629.3
48313.2
70353.7
70438.2
72341.4
73039
76199.1
78281.3
80221.1
91476.5
2806.29
27997.5
38945.9
44111.6
46672.3
47676.5
48340.5
70320.6
70397.1
72281.1
74075.7
76140.8
78221.9
80160
91361.7
2344.09
28007.3
38969.3
44376
46703.7
47694.4
48331.1
70313.6
70397.7
72261.1
74042
76122.2
78201.7
80138.4
91371.1
3374.1
28000.2
38960.4
44367
46677.9
47657.1
48320.3
70307.7
70395.7
72271.1
72998.7
76127.4
78223.7
80159.7
91409.9
3601.65
27980.4
38918.3
44098
46623.5
47585.5
48269.7
70368.2
70393.8
70605.3
72978.1
75506.1
78300.3
80225.3
91473.1
2836.89
27888.6
38805.8
43490.8
45678.5
47419.1
48210.5
70412.9
70462.1
70613.9
70996.5
74194.5
75843.1
79474.1
91793.8
2321.91
27551.7
37720.1
42358.7
45455.8
47323.1
48156.3
70434.7
70508.2
70643.9
70873.7
71390.6
75700.3
79338.6
91789.7
2308.84
27241.6
36796.3
42055.2
45367.5
47273
48115.4
70441.9
70522.3
70660.2
70852.8
71372.6
75752.5
79446.1
91890.5
2351.91
27178.1
36763.3
41991.7
45326.8
47240.7
48088
70434.4
70517
70655.4
70848.3
71347.3
75785.8
79488.7
91931.4
3110.16
27173.1
36795
41968.1
45299.6
47218.8
48065.9
64471.3
64033.4
63128.5
61737.1
62141
62202.6
65402.2
2297.17
19536.1
28970.6
35092.1
39397.5
41997.4
43205.9
64448.2
64009.6
63107.1
61720.1
62119.7
62167.5
65359.6
2298.44
19512.6
28958.1
35120.9
39404.7
41995
43201.6
64424.3
63986.4
63076.7
61691.6
62177.3
62158.3
65288.3
2299.26
19334.6
29040.8
35150.1
39433
42019.3
43215.2
64407.1
63965.4
63056.3
61836.6
62613.4
62123.5
65133
2301.11
19464.3
28960.3
35413.1
39522.7
42087.5
43258
64394.4
63952.5
63198.6
63990.7
63117.1
64080.8
65719.6
2298.55
17850.4
28864.9
35730.8
39658.5
42194.7
43327.7
64374
64057.4
64886.5
64187.4
64507.4
64995.1
65661.7
2293.32
17838
28822.8
35794.7
40114.7
42292.6
43415.3
64369.3
64068.3
64810.9
64246.5
65270.5
65004.1
65626.4
2300
17839.2
28861.1
35917.1
40154.8
42322.7
43438.8
64343.5
64046.7
64771.5
65186.5
65311
64983.9
65586.2
2300.57
17853.4
28873.7
35992.5
40133.7
42339.4
43432.7
64326.9
64026.3
64740.5
65171.5
65289.5
64958.1
65557.5
2298.44
17844.3
28867.1
35983.9
40121.9
42307.4
43423.3
64286
63969.2
64735.1
64188.5
65201.1
64929.5
65543.5
2293.27
17825.3
28840.8
35895.4
40121.9
42256.5
43377.6
64266.2
63824.7
63066
63875.2
64369
64879.3
65539.9
2297.34
17820.4
28788.1
35702.2
39610.2
42141.7
43272.9
64238.8
63799
62895.7
61679.3
62602.8
62098.4
64785
2294.6
18361.6
28999.1
35350.5
39452.3
42010.5
43178.4
64215.6
63779.6
62873.6
61492.6
62067.7
61961.2
65032.8
2300.38
19236.7
28970.6
35069.2
39336.8
41915.4
43107.9
64200.4
63764.1
62866.6
61487.8
61961.6
61953.5
65105.5
2299.12
19425
28859.7
35002.5
39275.9
41859
43062
64183.9
63748.5
62848.4
61463.7
61861.4
61932.2
65123.3
2298.33
19460.7
28843
34945
39235
41826.2
43030.9
58639.5
57709.1
55781.6
52564.4
51297.5
46266.4
43967.7
3224.64
2294.14
16321.2
25170.2
31350
35758.9
38512
39842.9
58623.2
57691.9
55764.4
52546.2
51267.9
46213.8
43891.3
3243.36
2295.01
16455.8
25163.8
31372.5
35758.9
38508.1
39836.9
58612.5
57683.8
55741.5
52478.8
51244.4
46163.2
43824.7
3211.57
2294.75
14206.2
25301.2
31395.4
35774.6
38521.2
39842.8
58620.9
57697.5
55703.6
52528.8
51273.9
46142.1
43850
2291.81
2301.25
14805.6
24160.8
31460.6
35808.6
38565.9
39868.7
58656.4
57728.6
55814
55160.9
51483
48693
45643.7
2787.32
2285.7
13487.6
23524
30911.7
35831.9
38625.2
39908.5
58689.2
57869.3
57628.8
55295.9
53179.2
49906.7
45854.6
2813.76
2295.8
13422.2
23210.7
30926.8
35657.4
38624.5
39967.3
58699.4
57880.6
57615.9
55294
53977.1
49951
45887.1
2862.93
2289.89
13393.8
23215.4
30630.7
35696.1
38617.8
39969.5
58677.7
57872.6
57592.7
56413.2
54025.4
49944
45822.3
2854.89
2299.74
13434.6
23220.8
30496.9
35691.4
38624.9
39963.7
58654.1
57836.7
57565.3
56406.1
54001.7
49914
45786
2396.03
2293.57
13426
23216.8
30492.4
35685.6
38606.5
39958.9
58596.6
57776.1
57548.2
55236.8
53929.1
49862.6
45748.9
2924.24
2296.84
13381.4
23204
30623.9
35678.1
38600.8
39941.4
58521.1
57596
55680.9
55069.3
53049.4
49768.6
45663.3
2908
2293.38
13423.2
23201.3
30876
35796.1
38583.2
39861.9
58444.7
57523.4
55536.9
52370.6
51109.4
46094.7
43843.3
2757.1
2291.78
14021.2
24121.5
31412.7
35750.4
38498.8
39799.6
58395
57469.3
55533.7
52284.3
51034.8
45988.4
43701.1
2344.28
2296.85
14317.6
25242.1
31322.7
35689.4
38429.2
39747.1
58366.6
57439.1
55519.5
52316.1
51054.8
45996
43672
3186.7
2293.52
16379.6
25079.2
31271.6
35643
38383.9
39708.8
58343.4
57416.7
55497.3
52294
51032.8
46006.5
43679.6
3228.41
2293.94
16234.4
25059.6
31214.8
35607.4
38352.5
39679.3
53953.1
52563.5
49649.8
44639.5
36521.2
30209.5
12123.7
2280.91
2299.49
16149.6
23908.4
29936.8
34307.3
37050.4
38394
53936.3
52544.9
49625.1
44615.3
36467.8
30120.7
12013.5
2279.99
2299.4
16264
23862.1
29936.6
34287.6
37035
38377.4
53922.6
52531.9
49601
44537.6
36334.1
29866.3
11936.4
2285.72
2300.93
14374.3
23873.7
29944.5
34276.6
37021.3
38360.8
53922.9
52547.8
49548.1
44587.7
40793.7
29788.4
11990.9
2291.82
2301.38
13600.3
21970
29864.1
34242.9
37014.2
38348.4
53953.5
52575.9
49561.8
47510
40902.5
33380.7
17901.6
2295.24
2296.16
11625
21006.8
28562.5
34185.2
37022.9
38338.2
53991.9
52604.2
51629.7
47513.8
43058.7
35128.3
18964.1
2294.17
2304.4
11535.8
20506.7
28493.1
33360.2
36975.8
38354
53986.8
52591.6
51623.2
47430.8
43989.6
35177.4
19026.3
2292.89
2289.17
11484.6
20475.8
27869.3
33343.2
36946.8
38337.3
53961.2
52581
51604.4
48879.7
43938.1
35168.9
18966.4
2292.27
2295.96
11497.9
20466.7
27572.7
33338.7
36944.5
38331.2
53937.2
52543
51579.8
48866.4
43913.9
35143.9
18941.3
2292.3
2294.92
11490.4
20468
27574.5
33345.7
36941.2
38330.4
53891.3
52505.5
51568.9
47376.4
43929.1
35101.6
18910.8
2293.27
2285.86
11491.3
20479.8
27889.4
33361.2
36962.2
38337.7
53806.9
52431.3
49420.7
47504.6
42940.8
35010.5
18797
2295.26
2291.76
11546.1
20521.9
28502
34167.1
36995.1
38303.3
53733.8
52360.7
49368
44422.6
40737.7
29968.7
13475.9
2296.62
2293.4
12285.2
21930.1
29840
34202.9
36961
38293
53691.4
52304.9
49383.6
44339.3
36172.6
29771.4
11914.7
2290.84
2300.61
14198.4
23827.4
29885.6
34205.4
36942.6
38277
53665.8
52279.4
49370.8
44381.7
36272.3
29874.2
11881.8
2296.99
2304.1
16191.3
23794.4
29842.2
34181.3
36921.9
38260.1
53642.8
52258.2
49355.8
44366.6
36281.9
29972.2
11921.5
2286.68
2299.54
16028.4
23796.3
29804.1
34163.2
36900.5
38240.1
51066
49390.6
45894.4
40069.3
31346.9
21804.5
2308.2
2279.3
2299.94
15550.6
24308.2
30454.9
34784.3
37478.5
38794
51044.3
49368.8
45862.7
40055.3
31385.3
21907
2315.21
2301.1
2301.94
15493
24232.1
30424.7
34739.9
37448.3
38764.7
51020.5
49343
45818.5
39975.1
31211.9
23187.5
2311.68
2276.92
2305.36
13162.6
24294.6
30403.1
34700.1
37411.2
38727.7
51004.6
49358.5
45809.1
40071.4
34525.8
23030.2
2323.05
2294.22
2304.01
12968.8
21781.5
30275.7
34620.3
37360.1
38685.1
51011.3
49387.3
45861.8
42401.4
34634.4
25327
11036.8
2297.92
2293.85
11201.8
20556.2
28359.2
34534.1
37336.3
38643.2
51035.3
49382.6
47455.6
42448.3
36370.2
26502.6
11206.4
2298.16
2291.19
11075.4
19889.7
28243.4
33139.2
37284.8
38634.1
51009.9
49346.7
47490.9
42424.1
37155.7
26522.9
11235.9
2297.14
2296.23
10995.6
19819.2
27311
33087.4
37246.1
38606.1
50979.9
49324.9
47485.6
43616.5
37101.9
26514.3
11263.7
2296.15
2294.34
10992.1
19792.8
26867.4
33076.4
37239.3
38601.5
50953.3
49288.8
47466.1
43593
37077
26495.8
11259.7
2295.85
2293.08
10995.2
19804.1
26878.6
33098.2
37248.7
38604.7
50920.8
49269.9
47433.1
42358
37088
26471
11251
2296.89
2297.59
11021.8
19850.6
27363.7
33143
37283.6
38626.3
50847.2
49222.2
45698
42391.2
36250.5
26426.1
11198.2
2298.38
2293.88
11111
19944.8
28318.9
34540.2
37324.4
38624.3
50795.2
49150.7
45606.5
39885.3
34454.2
23162
10045.2
2294.95
2298.18
11932.9
21794.3
30280.5
34604.5
37327.2
38644.6
50768.4
49095.1
45580.7
39758.8
31041.2
23154.1
2310.29
2283.77
2305.12
13354.7
24276.9
30365.9
34644.2
37345.6
38655.3
50752.3
49081.2
45586.4
39801.7
31177.1
21737.5
2310.21
2276.49
2301.48
15441.1
24171.4
30336.1
34645.6
37345
38656.7
50734
49063.5
45579
39779.6
31111.3
21614.8
2308.63
2263.25
2299.79
15482.3
24193.3
30320.9
34646.6
37335.7
38647.5
50470.3
48810.6
45358.2
39842.3
30636.3
20277.9
2295.49
2288.56
2300.16
18255.2
26890
33006.4
37180.1
39712.1
40933.3
50442.2
48785.2
45324.3
39806.9
30720.4
20306.2
2294.03
2294.1
2301.89
18125.5
26747.8
32926.4
37109.1
39665.1
40891.3
50405.6
48741.5
45255.6
39563.5
31573.8
20429.2
2321.9
2294.53
2303.49
14360.5
26829
32907
37049.9
39613.2
40839.7
50377.1
48736.8
45232.1
39541.8
33217.6
20839.7
4875.94
2297.83
2295.25
14215.7
23585.8
32777.2
36941.6
39533.8
40778.5
50363.9
48750.1
45232.3
40886.5
32869
22954.8
10013.3
2304.25
2300.69
12037.2
22061.3
30280.9
36845.7
39490.2
40721.4
50376.8
48730.1
46078
40779.1
33919.7
23608.7
9438.39
2304.47
2298.64
11872.6
21190.1
30112.4
34957.6
39455.4
40704.1
50334.6
48678
46069.3
40719.6
34409.4
23530.4
9393.24
2300.01
2298.1
11693.9
21053.6
28863.5
34872.9
39410.8
40669.5
50305.3
48649.3
46049.4
41513.6
34324
23490.3
9416.26
2297.92
2297.23
11673.2
20998.8
28266.1
34858.1
39404.8
40668.3
50269.2
48607.1
46041
41484
34292.7
23466.8
9409.41
2298.06
2297.71
11685.6
21032.1
28294.3
34895.7
39425.1
40676.4
50243
48594.5
45990.2
40653.4
34321
23468.7
9414.69
2300.55
2297.36
11765.6
21147
28973.3
34975.3
39470.3
40707.4
50174.8
48554.3
45028
40741.2
33789.9
23534
9444.53
2310.2
2302.27
11970.2
21326.3
30285.2
36882.7
39499.8
40719.6
50139.1
48497.8
44990.2
39308.8
32877.4
21504.6
9609.99
2300.59
2431.14
12971.6
23680.1
32824.4
36952.6
39520.9
40751.7
50124.4
48461.4
44981.1
39305.3
31354.7
20507.1
2342.99
2295.88
2303.56
14443.2
26839.2
32896.1
37012.2
39558.7
40777.2
50120.1
48464.8
45010
39510.7
30463
20173.5
2294.44
2290.73
2301.27
18021.3
26679.2
32842.8
37025
39570.3
40790.8
50107.9
48450.9
45005.3
39509.8
30346.3
20086
2295.46
2287.86
2300.12
18102
26749.6
32871.5
37046.4
39573.3
40791.4
52246.7
50859.9
47910.7
43248.5
35145.9
23550.8
2299.36
2317.32
2317.84
25606.6
32502.3
38074
41607.2
43690.1
44690.6
52210.8
50821.1
47856.9
43130.7
35021.9
23420.6
2299.51
2298.03
2504.18
25173
32250.9
37921.1
41500.4
43623.9
44635.3
52159.1
50751.3
47772.6
42725.4
35799
23321.6
4983.91
2298.37
2302.83
18738.3
32301.6
37811
41390
43547.7
44567.4
52116.7
50702.8
47676.7
42652.7
35471.9
23386
6200.37
2296.84
2297.74
18161
28155.7
37617
41234.7
43446.6
44491.7
52082.8
50675.8
47611
42784.2
35069.1
24392.8
9928.35
2285.34
5393.48
15089.3
26071.3
34542.8
41140.1
43383.4
44423.3
52078.3
50661.1
47576.6
42583.6
35462.1
24734
9692.46
2308.89
2579.53
14599.6
24822
34294.3
38791.8
43394
44410
52024.9
50598.4
47508
42482.1
35620.4
24580.9
9644.85
2304.11
2301.99
14077.1
24538.1
32705.4
38682.8
43354.7
44373.1
51992.4
50558.7
47468.6
42779.1
35490.1
24500.7
9644.21
2297.27
2294.1
13936.4
24424.5
31930.6
38670.2
43354.1
44376.5
51945.8
50511.2
47442.6
42733.7
35435.2
24447.7
9615.89
2297.82
2300.21
14010.1
24512.9
31990.9
38725.8
43381.3
44388.2
51921.3
50493.9
47406.3
42377.7
35468.1
24446.4
9605.48
2302.74
2297
14332.8
24791.3
32909.4
38835.1
43426.6
44424.7
51862.3
50439.8
47350.6
42483.9
35259.9
24571.8
9640.2
2297.57
2396.71
14969.8
25168.1
34613.8
41224.8
43418.4
44436.5
51844.4
50421.7
47378.8
42332
35005.8
23347.9
8713.6
2280.44
2302.25
16245.6
28282.5
37727.7
41277.2
43449.1
44474.4
51843.5
50430.8
47446.4
42405
35479.5
23261.5
5858.38
2296.13
2303.01
18564.7
32357
37825.7
41370.1
43504.1
44512.3
51853.3
50460.4
47491.5
42767.8
34673.2
23112.1
2299.41
2299.97
2370.02
25037.9
32177.8
37845.7
41419.7
43531.4
44538.1
51848.4
50458.9
47504.3
42841.4
34742.5
23160.1
2299.3
2318.33
2313.22
25282.9
32340.4
37928.1
41470.6
43550.6
44549.5
56006.9
55077.6
53045.1
49869
43996.3
37079.6
2334.67
11679.9
28806.6
40617.2
42174.2
45908.7
47931.2
49187.1
49813.2
55962.7
55019
52953.7
49657.8
43640.3
36117.4
2331.8
5955.79
25436.2
39162.4
41639.7
45608.4
47767.7
49094.6
49742.3
55899.8
54925.8
52877.4
49174
44459.4
32900.3
10664.5
2302.03
3144.97
29182.5
41461.3
45204.4
47570
48983.3
49652.5
55846.4
54849.7
52696.5
49194.8
42236.4
31582
11714.2
2299.85
2303.57
26850.4
36241.4
44890
47345.9
48857.4
49558.4
55802.5
54811.1
52683.2
48132.9
41788.1
31031.2
13335.8
2298.15
2560.04
21368.2
33496.2
41360.1
47271.6
48780.9
49484.2
55796.4
54839.7
51762.9
47856.5
41332.5
30640.4
13015.4
2271.1
2304.1
20362.5
31744.2
41074.8
44603
48831.6
49487.2
55739.6
54777.8
51603.6
47746.9
41065.9
30373.6
12988.8
2297.06
2317.24
19486.7
31248.5
39153.1
44472.5
48801
49449.9
55697.9
54727.4
51544.1
47418.3
40877.2
30264.6
13159.1
2318.78
2297.02
19112.9
31043
38222.7
44504.1
48811.1
49457.9
55641.5
54666.2
51497.7
47341.1
40760.7
30102.2
13024.4
2304.7
2300.16
19368
31237.2
38323.3
44563.3
48835.1
49469.1
55614.1
54635.3
51460.7
47544.5
40758.1
29990.8
12741.3
2300.82
2298.71
20360
31820
39473.6
44660.8
48875.7
49507.5
55549.9
54530.7
52344.9
47621.5
40950.9
30224.2
12759.1
2295.29
2311.16
22109.9
32543.2
41542.5
47392.3
48828.6
49502.7
55541.3
54527
52337.9
48775.5
41578
30764.8
12273.1
2301.64
2318.12
23979.8
36484.6
45060
47411
48867
49545
55551.1
54565.6
52494.7
48771.6
44029.6
31978.8
11947.1
2302.63
2483.36
27983.2
41575.7
45243
47559.6
48943.1
49598.3
55570.8
54617.6
52530.6
49207.8
43193.6
35489.9
2328.32
6973.48
25677.4
39070.4
41577.6
45529.1
47682.9
48998.8
49641.8
55573.1
54634.2
52576.9
49361.9
43485.7
36050.9
2324.96
10588.3
26620.8
39942.1
41917.6
45722.8
47780.6
49040
49666.6
61094.4
60774.6
60141.1
59866.5
58990.6
67925.2
87854.2
79339
71231.4
60278.3
55291.2
55711.6
55488.3
55674
55817.3
61045.3
60697.7
60004.1
59492
58357.3
65899.1
84349.1
74372.2
66269.2
58618
54534.8
55271.6
55281.9
55559.2
55733.5
60981.5
60586
59890.3
58561.7
58064.3
52862.6
54522.5
51018.3
44642.1
48216
53711.6
54457.8
55004.1
55408.5
55621.8
60930.2
60516.8
59650.7
58566.7
53902.8
48898.5
35102.9
12384.6
19316.7
44308.9
48703.5
53959
54714.9
55256.8
55508.7
60895.7
60495.8
59683.5
56463.3
53787.2
46225.6
27472.8
2268.47
3768.47
35972
45465.5
50681.4
54595.3
55173.2
55426.7
60899.4
60501.9
58042.9
56264.6
51962.7
44486.2
25471.2
2242.56
2343.62
34470.4
43411
50471.9
52106.1
55151
55427.2
60845
60449.4
57895.8
56152.4
51102.4
43984.2
25482
1838.71
2325.15
32356.1
42782.4
48429.8
52031.4
55120.8
55384.9
60800.9
60400
57819.2
54967
50894.3
43932.3
26159.3
2281.83
2314.11
31245.4
42465
47359.6
52080.2
55133.1
55393.8
60736.1
60324
57748.7
54861.5
50659.1
43383.5
25355.5
5118.53
5002.75
31885.1
42753.3
47480.5
52132.8
55145.1
55399.1
60702.4
60280.2
57692.4
55807.6
50532.6
42825.5
23957
2480.17
2397.05
34716.3
43638.3
48799.1
52203.8
55186.8
55440.7
60621.8
60185.6
59295.5
55821.6
51260.6
43368.3
24370.1