/*--------------------------------*- C++ -*----------------------------------*\
| =========                 |                                                 |
| \\      /  F ield         | OpenFOAM: The Open Source CFD Toolbox           |
|  \\    /   O peration     | Version:  v2012                                 |
|   \\  /    A nd           | Website:  www.openfoam.com                      |
|    \\/     M anipulation  |                                                 |
\*---------------------------------------------------------------------------*/
FoamFile
{
    version     2.0;
    format      ascii;
    class       volScalarField;
    location    "0.005";
    object      p_rgh;
}
// * * * * * * * * * * * * * * * * * * * * * * * * * * * * * * * * * * * * * //

dimensions      [1 -1 -2 0 0 0 0];


internalField   nonuniform List<scalar> 
449343
(
90564.5
90743.4
91055.4
91405.1
91645.4
91618.9
91052.3
89882.1
88143.4
86027.1
83816.4
81785.9
80135
78983.4
78394.4
90567.2
90746.4
91058.7
91408.4
91648.4
91620.4
91053
89883
88145.8
86031.3
83821.5
81790.8
80138.8
78986.3
78396.7
90572.4
90752.1
91064.9
91414.6
91653.5
91622.2
91053.3
89883.7
88149.1
86038.3
83831.2
81800.2
80146.3
78991.7
78401.1
90579.5
90759.7
91073.3
91422.6
91659.7
91622.6
91051.6
89881
88150.4
86045.5
83843.7
81813.2
80156.6
78999.3
78407
90587.3
90768.3
91082.6
91431.3
91665.5
91620.8
91046.2
89875.6
88149.7
86052.7
83857.9
81828.5
80168.9
79008.2
78414
90594.6
90776.3
91091.3
91439.3
91671.1
91620.6
91042.5
89872.5
88151.2
86062.1
83872.9
81844.5
80181.5
79017.2
78421.1
90599.9
90782.2
91097.9
91445.7
91675.1
91621.9
91042
89871.2
88154.7
86071.9
83884.9
81858.4
80192.2
79024.8
78427.1
90602.2
90784.8
91100.7
91448.7
91677.4
91623.4
91039.1
89866.3
88150.1
86074.6
83890.9
81865
80197.6
79029.2
78431
90601
90783.4
91099.2
91447.2
91676.9
91624.2
91044.4
89874.3
88158.2
86076.4
83889.8
81863.4
80197.2
79029.9
78432.2
90596.7
90778.6
91094
91442.5
91674.9
91625.3
91048.2
89879.1
88158.8
86070.4
83881.9
81854
80191.4
79027.2
78431.1
90590.4
90771.7
91086.4
91435.9
91670.9
91627.7
91054.4
89885.3
88160.7
86064.9
83871.1
81842.3
80183.2
79022.7
78428.7
90583.5
90764.1
91078.2
91428.4
91666.5
91631.2
91061.8
89893.1
88164.3
86060.9
83860.3
81830.7
80174.7
79017.7
78425.6
90577.2
90757.2
91070.7
91421.4
91661.6
91632.4
91065.4
89897.8
88165.3
86056.3
83850.6
81820.6
80167.4
79013.2
78422.7
90572.4
90752
91065.1
91415.9
91657.3
91631.5
91066.4
89898.8
88163.7
86051.1
83842.9
81813.3
80162
79009.9
78420.5
90569.9
90749.3
91062.1
91413
91654.7
91630.6
91066.2
89898.4
88162.1
86047.9
83838.8
81809.5
80159.2
79008.1
78419.3
90364.9
90592.6
91006
91514.6
91953.1
92145.2
91731.3
90522.2
88551.6
86107.1
83598.2
81361.2
79589.8
78376.1
77761.5
90367.7
90595.8
91009.9
91519
91957.2
92147.6
91732
90523.2
88554.9
86113.2
83605.3
81367
79593.8
78378.7
77763.4
90373.1
90602
91017.5
91527.4
91965.1
92150.9
91732.4
90524.9
88560.9
86125.3
83619.9
81379
79601.7
78383.7
77767
90380.4
90610.6
91028
91538.8
91974.1
92151.9
91726.3
90515.8
88561.2
86137.3
83639.5
81396
79612.9
78390.7
77772
90388.8
90620.6
91040.3
91551.6
91983.6
92144.7
91713.3
90503.2
88545.5
86148.2
83663.3
81417.2
79626.5
78399
77777.8
90396.7
90630.1
91052.4
91565
91993.7
92146.2
91706.2
90497.4
88550.9
86159.9
83688.2
81440.5
79641.2
78407.5
77783.8
90402.6
90637.5
91062.1
91575.2
91998.6
92153.4
91706.7
90496
88556.1
86178.5
83721.2
81463.3
79653.8
78415.4
77789.2
90405.1
90640.4
91065.6
91580.1
92003.1
92155.1
91703.5
90440.8
88543.7
86178.9
83729.7
81471.7
79659.5
78420
77793
90403.7
90638.6
91063.4
91576.8
92000.4
92155.9
91709.4
90499.1
88559.8
86183.5
83726.6
81468.6
79659.2
78420.7
77794.6
90398.8
90632.4
91055
91568.1
91997.6
92150.8
91711.9
90504.3
88559.1
86168.8
83697.6
81450.5
79651.6
78418.1
77794.4
90391.8
90623.9
91044.1
91556.2
91989
92151.7
91721.7
90513.5
88557.2
86161.3
83677.4
81431.9
79641.7
78414.3
77793.2
90384.3
90614.8
91032.8
91544.6
91981.1
92160.4
91736.9
90528.5
88576
86153.8
83657.3
81414.7
79632.1
78410.1
77791.6
90377.6
90607
91023.1
91534.2
91973.2
92161.3
91744.9
90539.7
88578.1
86144.6
83640.7
81400.7
79624.1
78406.5
77789.9
90372.7
90601.2
91016.1
91526.4
91966.2
92158.9
91745.9
90539.8
88574
86134.5
83628.2
81391
79618.4
78403.7
77788.5
90370.1
90598.3
91012.5
91522.4
91962.5
92157.1
91745.8
90539.5
88571.6
86129.4
83622.2
81386.3
79615.6
78402.3
77787.8
89863.8
90202.8
90849.5
91730.9
92672.4
93418.7
93464.9
92156.7
89563.3
86256
83012.7
80302.3
78265.4
76916.9
76247.3
89866.6
90206.5
90854.6
91737.6
92679.6
93424
93466.3
92159.3
89569.7
86267.2
83023.9
80309.8
78269.3
76918.7
76248.2
89872.1
90213.7
90865.1
91751.8
92694.8
93433.8
93463.6
92162.9
89581
86293.5
83050.7
80326.5
78277.4
76922.3
76249.9
89879.8
90224
90880.7
91772.8
92716.6
93439.5
93444.4
92158.1
89568.4
86320.3
83093.7
80353.7
78289.6
76927.2
76252.1
89888.9
90236.7
90900.2
91798.1
92734.2
93423.1
93366.9
92067.3
89509
86354.6
83140.8
80386.3
78305.2
76933.2
76254.7
89897.8
90249.8
90921.1
91822.5
92758.4
93414.7
93347.3
92061
89518.6
86382.4
83207.7
80426
78322
76940.1
76257.6
89904.4
90259.3
90935.4
91848.8
92768.8
93432.7
93340.4
92052.3
89522.8
86405.6
83329.9
80466.9
78340.4
76947.2
76260.8
89907.4
90263.8
90941.4
91858.2
92781.8
93453.8
93375.8
91969.9
89514.1
86407.7
83340.3
80477.4
78347.5
76952.6
76264.4
89905.3
90260.2
90936.5
91850.4
92770.6
93435
93343.4
92056.5
89527.4
86410.9
83335.5
80472.7
78346.1
76952.9
76266.7
89899.7
90251.9
90923.6
91825.6
92762.5
93419.7
93353.2
92068.3
89527.6
86392.4
83218.7
80437.6
78333.8
76952.1
76269.5
89891.7
90239.7
90903.8
91802.5
92739.8
93430
93375.8
92078.6
89523
86369.8
83157
80403.2
78322.4
76950.6
76272
89883.4
90227.9
90885.2
91778.4
92723.8
93448.2
93455.9
92172.3
89585.4
86339.4
83114.3
80375.1
78311.4
76949.2
76274.2
89876.3
90218.2
90870.5
91758.5
92703.2
93444
93477.2
92179.8
89600.9
86315.8
83074.7
80351.5
78302.9
76947.9
76275.7
89871.2
90211.5
90860.5
91744.9
92689
93435.4
93481.1
92177.9
89591.8
86292
83050.5
80337.4
78297.3
76946.9
76276.5
89868.6
90208.1
90855.7
91738.6
92682.2
93430.7
93480.4
92176.3
89586.4
86281.9
83040.6
80331.2
78294.8
76946.5
76276.9
88926.9
89428.6
90425.8
91897.1
93726.4
95582.3
96833.8
95357.6
91370.8
86256.2
81754.4
78363.5
75991.5
74489.4
73763.5
88929.1
89432
90431.9
91907
93738.9
95593.2
96831.4
95363.2
91379.7
86274.8
81770.4
78371.1
75993.6
74489.2
73762.4
88933.6
89439.4
90445.6
91930.6
93769.7
95617.4
96835.8
95382.8
91423.2
86336.5
81813.5
78389.6
75998.5
74488.8
73760.2
88940
89450.4
90467.8
91971
93816.2
95659.5
96700.8
95407
91390.8
86471.7
81908.6
78423.8
76006.5
74488
73756.6
88947.9
89464.9
90497.5
92019.8
93882
95633.5
95819.9
94969.4
91989.2
86591.9
82009.2
78471.5
76016.1
74485.9
73751.4
88956.3
89481.3
90536.8
92098.6
93948.5
94801.2
95734
94949.2
92034.1
87745
82184.4
78533.5
76031.5
74484.2
73746.7
88962.2
89494.5
90563.5
92147.2
93307.7
94853.9
95713.2
94916.3
92011.5
87780.1
83397.9
78574.6
76042.3
74484.4
73743.3
88964.5
89501.1
90576
92162.1
93305.5
94883.4
95748.8
94825.4
92006.9
87794.7
83381.2
78585.1
76060.2
74492.8
73744.9
88962.8
89495.2
90564.2
92148.6
93300.4
94869.2
95721.3
94901.2
92016.2
87791.6
83390
78580.8
76048
74490.7
73750.4
88958
89483.2
90539.1
92101.6
93951.9
94816
95720.7
94929.4
92017.7
87782.9
82198.7
78547.8
76046
74498.6
73760.7
88950.2
89467.4
90500.5
92023.6
93887.5
95640.7
95817.6
94972.8
92029.7
86610.4
82029
78492
76036.7
74506.3
73771.8
88942.9
89453.7
90471.9
91976.2
93823.1
95667.8
96714.5
95424.7
91412.5
86496
81934.3
78449.9
76032.6
74514.1
73782.7
88937.1
89443.3
90450.4
91936.7
93777.9
95628.6
96850.1
95402.6
91446.7
86364
81843.1
78420
76029
74519.2
73790.5
88933
89436.4
90437.2
91913.8
93748.1
95605.2
96847.7
95385.3
91406.9
86305.9
81803.5
78404.8
76027.2
74522.7
73795.8
88931
89433.2
90431.4
91904.4
93736
95594.9
96850.8
95381
91399.1
86288.6
81789
78398.7
76026.7
74524.5
73798.5
87351.4
88031.5
89434.3
91646.4
94752.6
98723
102824
100793
94149.7
85451.3
79148.2
75137.4
72554.1
70999.3
70274.6
87351.4
88033
89439.3
91657.9
94771.2
98743.3
102830
100803
94181.2
85490.3
79168.7
75140.5
72551.1
70995.1
70270.2
87351.7
88036.9
89451.6
91688
94830
98805.2
102858
100826
94255.3
85565.2
79211.8
75145.6
72544.6
70986.5
70261.2
87352.2
88043.5
89475
91764.5
94998.4
98952.5
100545
100894
95694.7
86097.4
79414.8
75182.2
72536.8
70973.8
70247.4
87352.6
88051.6
89511.3
91850
95148.2
97434.2
100563
100829
95796.1
88178.7
79566
75202.5
72519.2
70950.3
70227.2
87354.5
88069.4
89575.8
92065.9
94273.5
97617.9
100606
100713
95760.2
88368.5
81681.5
75284.9
72497.1
70933.7
70208
87352.6
88069.1
89580.8
91482
94329.7
97723.6
99634.6
99952.3
95966
89293.9
81885.4
77097.9
72435.3
70898.4
70187.2
87355.5
88078.6
89649.7
91479.4
94370.4
97753.4
99665.4
99936
95995.9
89347.6
81975.8
77161.8
72554.5
70897.4
70191.3
87352.5
88069.2
89580.9
91467.1
94359.8
97746
99644.9
99945
95973.3
89346.8
81961.6
77154.9
72441.8
70906.7
70195.9
87356
88071.2
89578
92068.5
94276.9
97655.4
99665.5
99959.3
95969.5
88428.5
81775.5
75302.9
72515.5
70951.4
70224.9
87354
88053.1
89513.4
91853
95152.9
97484.6
100560
100721
95739.2
88320.5
79591.7
75228.4
72544.8
70974.8
70252
87354.2
88046
89478.3
91769
95005.1
98962.2
100531
100892
95819.4
86129.6
79448
75215.1
72568.9
71005.6
70278.6
87354.2
88039.9
89455.4
91693.1
94837.2
98816
102872
100864
94286.2
85601.8
79250
75183.7
72582
71023.4
70297.8
87354.2
88036.3
89443.7
91663.8
94779.6
98755.3
102845
100837
94216.2
85532.1
79211.7
75183
72592.8
71036
70310.6
87354.4
88035.1
89438.9
91652.7
94761.4
98735.9
102841
100824
94186.1
85494.9
79193.1
75181.7
72597.5
71041.9
70316.8
84878.1
85690.1
87426.9
90351.2
94915.4
102109
108157
114537
102170
81752.2
74035.1
70081.9
67674.5
66337.1
65748
84873.7
85686.7
87426.2
90358.5
94939.4
102135
108166
114538
102178
81778.7
74042.3
70070.5
67662.7
66328
65739.8
84864.7
85680.1
87425.2
90365.2
94979.4
102209
108188
114533
102161
81742.4
74004.1
70019.3
67630.2
66305.3
65721.7
84851.8
85673.9
87435.3
90431.1
95360.3
100078
108363
114619
102081
85930
74123.2
69916.8
67585.8
66275.3
65694.4
84832.1
85652.9
87422.9
90511.3
94168
100358
108642
112055
103209
86684
77307.3
69816.3
67452.2
66208.6
65652.7
84817.6
85634.6
87487.8
90140.1
94318.1
99470.2
106815
110986
103255
88848.1
77439.4
72190
67341.4
66129.2
65608
84798.8
85605
87489.2
90195.4
94476.5
99489.3
105896
110905
103617
89742.9
79099.9
72226
67230.6
66055.2
65567.7
84785.7
85575.1
87530.6
90263.6
93857.3
99018.3
105915
110877
103579
89737.6
79086.2
72241.3
69204.6
65996
65555.4
84798.2
85605
87490.1
90234
93851.7
99489.1
105916
110880
103586
89747.7
79095.6
72210.6
67245.3
66066.1
65577.7
84818.9
85635.8
87488.8
90132.4
94437.6
99497.9
105879
110920
103635
89776
79148.6
72253.3
67360.9
66150.2
65629
84832
85653
87423.6
90513.4
94177.5
100468
106729
111971
103268
88773.2
77460.9
69851.2
67485.7
66239.8
65683.2
84852.6
85675.4
87437.7
90434.1
95365
100133
108418
114641
102102
86124.9
74166.8
69958.8
67625
66313.7
65732.5
84865.8
85681.5
87427.5
90368.9
94984.6
102218
108228
114540
102179
81795.5
74055.6
70068.6
67676.9
66351.3
65766.5
84875.1
85688.6
87429.3
90363.1
94946
102145
108184
114560
102233
81838.5
74099.8
70125.3
67714.9
66378.1
65788.9
84879.7
85692.2
87430.1
90356
94922.2
102120
108176
114567
102222
81815.6
74095
70138.8
67728.6
66389.6
65799.4
81268.4
82070.8
83833.1
86955.8
92087
99072.1
115612
146412
108283
75409.7
64405.9
62388.9
61108.9
60506.7
60259.9
81257.9
82059.8
83820.9
86942.5
92081.7
99072.8
115594
146401
108280
75398.7
64374.6
62350
61088.6
60494
60249.8
81233.9
82031
83785.5
86883.4
91988.6
99065
115518
146354
108262
75373.7
64243.6
62252.4
61032.6
60459.1
60225.9
81198.2
81989.7
83735.2
86687.1
91436.8
99472.9
115536
146176
108004
75407
67719.1
61900.6
60933
60400.3
60188
81140
81908.3
83557.3
86787.7
91477
98623.9
112737
146076
108862
79113.2
67389.5
64195.2
60662.6
60302.3
60129.1
81076.7
81766.3
84082.9
86864.4
91253.6
98601.8
111342
141026
113195
80995.5
69549
63989
62458.6
60146.9
60064.3
81047.1
81731.1
84092.4
86873.8
91289.2
98210.2
111241
140902
113110
80954.4
70718.6
65560.7
62378.6
60105.9
60031.7
81008.9
81695.1
84155.8
86904.4
91290.3
98188.5
111198
140858
113114
80952.3
70695.4
65535.8
62384.9
60105.5
59991.8
81045
81728.5
84106.5
86920.3
91311.2
98190.7
111199
140859
113110
80957.2
70708.1
65558.6
62355.1
60119.4
60043.3
81077.3
81767.4
84103.3
86845.7
91303.1
98211.9
111250
140916
113136
80979.8
70741
65598.4
62444.7
60173.5
60090.2
81137.9
81906
83556.2
86794.1
91486.6
98650.9
111363
141056
113247
81039.6
69722.9
64134.5
60703.4
60340.5
60166.2
81197.2
81989.8
83736
86687.8
91336.1
99390
112806
146076
108232
79396.6
67676.3
61953.7
60983.5
60448.6
60234.8
81233.1
82030.2
83785.6
86885.3
91991.3
99091.8
115522
146266
108269
75454.1
64314.2
62315.8
61092.5
60515.4
60280.4
81257.4
82059.9
83822.2
86945.2
92085.4
99090.8
115580
146388
108351
75504.1
64451.7
62420.2
61153.2
60555.4
60309.5
81267.9
82070.9
83834.4
86958.5
92090.7
99077.5
115612
146423
108370
75486.7
64486.6
62462.2
61176.6
60570.9
60322.2
76429.3
76981
78169.8
80238.3
83411.2
90150.9
97254.7
93245.1
22073.4
47308.6
50398.1
52126.5
53187.5
53857.7
54149.9
76414.6
76964.1
78149.1
80206.5
83386.4
90121.1
97230.1
93153.9
22068.1
47288.1
50322.9
52090
53175.7
53849.6
54144.2
76379.7
76918.4
78095.8
80165.1
83294.3
90036.7
97145.9
93068.8
22143.6
47285.4
50234.5
52059.8
53146.8
53828.2
54130.7
76322.7
76834.6
77995
79909.3
84592.6
89667.9
96904.9
92917
22195.1
47359.8
51886
52091.4
53105.6
53786.9
54110.6
76233.1
76708.1
77776.7
81083
84378.6
90125.7
97763.9
92731.2
23506
50733.7
53443
53631.9
53084.6
53755
54079.8
76121
76571.2
79006.9
80988.3
84872.2
90388.1
97561.5
92441.1
23764.1
51051.7
54386.9
53654.8
54457.4
53765.5
54050.4
76084.9
76521.9
79010.7
80924.5
85133
90323.6
97446.3
92289.4
23405.7
51080.6
54473
54709.3
54403.2
53798.3
54060.8
76062.6
76488.9
78981.5
81570.9
85133.6
90292
97392.4
92163.9
23902
51111.5
54504.8
55314.7
54429.3
53826.9
54051.5
76084.7
76521.2
78981.9
81561.7
85133.9
90292.8
97393.3
92183.8
23568.3
51112.1
54513.4
55321.6
54400.4
53815
54076.2
76117.9
76568
79017.6
80929.1
85129.2
90327.7
97452.1
92294.5
23513.7
51119.4
54500
54737.5
54433.4
53796.3
54081
76229.4
76705.1
77775.2
81032.8
84887.5
90394.7
97575.7
92457.7
24002.1
51098
54417.4
53622.2
53133.4
53801.3
54124.4
76319.7
76831.6
77991.8
79908.7
84510.6
89383.2
96668.9
92789.3
23066.8
49221.1
51840
52159.2
53169.3
53845.7
54167.1
76376.2
76915.6
78094
80163.7
83294.9
89843.9
96988.3
92927
22337.3
47369.5
50323.8
52141.9
53220.4
53895.9
54196.1
76411.3
76961.8
78148.2
80208.1
83389.2
90093.2
97173.5
93068.9
22278.9
47417.4
50426.1
52177.3
53254.6
53923.6
54215.7
76426.1
76978.8
78169.2
80239.5
83413.6
90145
97237.9
93143.2
22274.8
47432.6
50503.3
52217.7
53270.1
53934.8
54224.4
70578.7
70659.9
70795.7
70985.5
71480
75920.8
79633
92265.1
2180.37
27169.8
36804.9
41995.1
45338.9
47265.5
48116
70566.5
70645.5
70780.8
70969.4
71485.1
75895.2
79606.8
92063
2282.15
27147.6
36758.5
42006.2
45351.2
47271.4
48121.9
70539.8
70611.9
70745.5
70973.8
71485.3
75819.3
79530.8
91997.3
3034.86
27164.6
36782.1
42052.5
45378.3
47291.2
48136.5
70497.6
70545.9
70694.6
71073.1
74188.3
75786.9
79346.4
91870.5
2261.45
27331.9
37509.7
42354.4
45458.2
47332.2
48167.9
70433.2
70458.6
70671.2
73069.5
74277.3
77550.9
80384.5
91845.5
3049.2
27567
38368.8
43459.8
45678.4
47422.6
48216.3
70353.2
70441.4
72345.6
73038.3
75526.4
78334.5
80274.1
91526.8
2758.34
27886.4
38826.7
43578
46613.6
47590
48273.9
70334.1
70418.6
72316.9
73014.5
76170.9
78253.1
80192.8
91447.6
2778.16
27969.3
38917.7
44084.6
46647.8
47656.9
48320.9
70320.6
70397.1
72276.2
74068.3
76132.2
78213.3
80151.4
91352.5
2335.51
27998.7
38960.7
44367.4
46698.8
47694.4
48331.1
70333.3
70417.3
72275.8
74054.3
76133.2
78212.8
80149.4
91381.5
3385.14
28011.2
38971.4
44378
46692.6
47676.7
48339.9
70347
70435
72305.4
73033.1
76158.1
78254.3
80190.3
91440
3632.31
28011
38949
44129.9
46657.9
47624.7
48309
70427.1
70452.7
70664.1
73032.1
75557.6
78350.5
80275.5
91522.7
2887.17
27938.8
38856.1
43544.7
45737.3
47478
48269.4
70491.4
70540.6
70692.4
71075
74268.1
75916.7
79545.2
91863.1
2389.99
27622.9
37793.7
42437.2
45534.3
47401.6
48234.8
70532.8
70606.3
70742
70971.8
71488.7
75793.5
79429.3
91878.6
2394
27334.8
36894.4
42153.3
45465.6
47371.1
48213.5
70559.6
70640
70777.9
70970.5
71490.3
75865.4
79556.5
91999
2457.11
27290.9
36881
42109.5
45444.5
47358.5
48205.7
70571.7
70654.3
70792.7
70985.7
71484.7
75918.2
79618.7
92059.6
3238.74
27305.6
36932.3
42105.4
45437
47356.1
48203.3
64333.9
63896.1
62991.1
61599.7
61998.8
62060.3
65257.5
2204.04
19393.9
28833.3
34954.8
39260.1
41860
43068.6
64330.5
63891.9
62989.4
61602.3
61997.1
62044.9
65234.5
2214.28
19390
28840.4
35003.2
39287
41877.2
43083.9
64326.2
63888.3
62978.6
61593.5
62074.3
62055.3
65182.9
2229.54
19231.6
28942.7
35052
39334.9
41921.2
43117.1
64328.6
63886.9
62977.8
61758.1
62530
62040.2
65047.1
2241.02
19381
28876.9
35334.6
39444.2
42009.1
43179.5
64335.5
63893.6
63139.7
63927
63053.4
64014.6
65652.2
2268.24
17782.9
28798.6
35667
39599.7
42135.8
43268.8
64334.8
64018.1
64842.4
64143.3
64460.8
64947.2
65613.9
2271.74
17790.1
28775
35750.6
40070.5
42253.4
43376.1
64349.7
64048.7
64786.3
64222
65242.3
64975.9
65598.2
2284.61
17811
28832.8
35890.1
40130.3
42303.1
43419.2
64343.5
64046.7
64766.6
65179.1
65302.5
64975.3
65577.7
2296.73
17844.8
28865.1
35983.9
40128.8
42339.4
43432.7
64346.5
64045.9
64755.2
65183.7
65300.5
64969.1
65568.5
2303.48
17855.4
28878.1
35995
40136.6
42327
43443
64325.3
64008.5
64769.4
64222.8
65231.8
64960.1
65574.2
2306.13
17856
28871.4
35927.3
40156.2
42295.7
43416.8
64325
63883.6
63124.8
63929.1
64420.5
64929.6
65590.2
2317.07
17870.7
28838.4
35756.2
39669.1
42200.5
43331.8
64317.3
63877.5
62974.2
61757.8
62676.4
62172
64856.1
2329.08
18432.7
29072.7
35428.9
39530.7
42089
43256.9
64313.7
63877.7
62971.7
61590.7
62160.9
62054.4
65123.5
2360.37
19329.9
29068.7
35167.3
39434.9
42013.5
43206
64318.1
63881.8
62984.3
61605.5
62074.5
62066.3
65215.8
2375.75
19537.8
28977.4
35120.2
39393.7
41976.7
43179.7
64321.3
63885.8
62985.8
61601
61993.8
62064.6
65253.3
2385.34
19593.1
28980.4
35082.4
39372.4
41963.5
43168.3
58502.2
57571.8
55644.3
52427.1
51155.2
46124.1
43823
3082.12
2195.11
16183.9
25032.8
31212.7
35621.6
38374.7
39705.5
58505.5
57574.2
55646.6
52428.5
51145.3
46091.2
43766.2
3123.56
2208.73
16338.1
25046.1
31254.8
35641.2
38390.4
39719.2
58514.4
57585.7
55643.4
52380.7
51141.4
46060.2
43719.2
3111.13
2223.99
14103.2
25203.1
31297.3
35676.5
38423.1
39744.7
58542.5
57619.1
55625.1
52450.3
51190.5
46058.7
43764.2
2291.22
2254.82
14722.2
24077.4
31382.1
35730.1
38487.5
39790.3
58597.6
57669.8
55755.1
55097.2
51419.2
48626.8
45576.3
2737.81
2285.31
13420.1
23457.7
30847.9
35773.1
38566.3
39849.7
58650
57830
57584.6
55251.7
53132.6
49858.9
45806.8
2766.75
2286.9
13374.4
23162.9
30882.7
35613.3
38585.3
39928.1
58679.8
57861
57591.4
55269.5
53948.9
49922.8
45858.9
2834.11
2287.84
13365.6
23187.1
30603.8
35671.6
38598.2
39949.9
58677.7
57872.6
57587.8
56405.8
54016.8
49935.4
45813.8
2845.71
2299.55
13426
23212.2
30488.3
35686.5
38624.9
39963.7
58673.7
57856.4
57580
56418.4
54012.8
49925
45797.1
2400.43
2293.66
13437.1
23227.8
30503.4
35700.3
38626.1
39978.5
58635.8
57815.4
57582.6
55271.1
53959.7
49893.2
45779.6
2954.28
2302.16
13412.1
23234.7
30655.7
35712.5
38640
39980.6
58580
57654.8
55739.7
55123.3
53100.9
49818.8
45713.5
2957.29
2302.01
13473.4
23251.6
30929.9
35855
38642.1
39920.7
58523.2
57601.9
55615.3
52449
51183
46168.3
43914.4
2805.92
2292.18
14092.3
24195
31491.2
35828.9
38577.3
39878.1
58493.1
57567.4
55631.8
52382.4
51128
46081.6
43791.9
2354.4
2362.06
14410.8
25340.2
31420.8
35787.5
38527.3
39845.2
58484.3
57556.8
55637.2
52433.8
51167.6
46108.8
43782.4
3287.62
2372.15
16497.3
25196.9
31389.3
35760.7
38501.6
39826.6
58480.7
57554
55634.6
52431.3
51165.2
46138.9
43809.6
3348.5
2386.2
16371.8
25196.9
31352.1
35744.8
38489.8
39816.7
53815.8
52426.2
49512.5
44502.2
36383.8
30067.3
11979
2280.78
2206.4
16012.3
23771.1
29799.5
34170
36913.1
38256.6
53818.6
52427.2
49507.3
44497.6
36350.1
29998.1
11888.4
2279.76
2218.3
16146.3
23744.4
29818.9
34169.8
36917.2
38259.7
53824.5
52433.8
49502.9
44439.5
36236
29763.3
11831
2285.05
2235.56
14271.3
23775.6
29846.4
34178.5
36923.2
38262.7
53844.5
52469.4
49469.6
44509.2
40710.3
29705.1
11905
2291.53
2261.73
13517
21886.6
29785.6
34164.4
36935.7
38270
53894.6
52517.1
49502.9
47446.3
40838.7
33314.5
17834.2
2295.18
2295.29
11557.6
20940.6
28498.7
34126.3
36964.1
38279.4
53952.7
52565
51585.6
47469.6
43012.1
35080.5
18916.2
2294.13
2290.59
11488
20458.9
28448.9
33316.1
36936.6
38314.7
53967.1
52571.9
51598.6
47406.3
43961.4
35149.2
18998.1
2292.87
2288.88
11456.4
20447.6
27842.3
33318.7
36927.2
38317.7
53961.2
52581
51599.4
48872.4
43929.5
35160.3
18957.9
2292.26
2295.91
11489.3
20458.2
27564.2
33333.8
36944.5
38331.2
53956.9
52562.6
51594.6
48878.6
43924.9
35154.9
18952.3
2292.31
2295.06
11501.4
20479.1
27585.6
33360.5
36960.8
38350
53930.6
52544.7
51603.2
47410.8
43959.8
35132.2
18941.5
2293.3
2286.32
11522
20510.5
27921.3
33395.6
37001.5
38376.9
53865.7
52490.2
49479.6
47558.5
42992.4
35060.8
18847.3
2295.3
2292.28
11596.4
20572.2
28556
34225.9
37054
38362.1
53812.3
52439.2
49446.5
44501.1
40811.3
30042.3
13547.1
2296.68
2294.9
12356.3
22003.6
29918.5
34281.4
37039.5
38371.5
53789.5
52403
49481.7
44437.4
36270.7
29864.6
12005.5
2291.31
2361.77
14291.6
23925.5
29983.7
34303.5
37040.7
38375.1
53783.6
52397.1
49488.5
44499.4
36390.1
29987
11992.2
2298.28
2379.2
16309
23912.1
29959.9
34299.1
37039.6
38377.8
53780.2
52395.5
49493.1
44503.9
36419.2
30104.7
12051.5
2287.01
2385.74
16165.8
23933.6
29941.5
34300.5
37037.8
38377.4
50928.7
49253.3
45757.1
39932
31209.6
21667.1
2173.07
2279.07
2187.92
15413.3
24170.9
30317.6
34647
37341.1
38656.6
50926.6
49251
45744.9
39937.6
31267.6
21789.2
2198
2300.13
2204.59
15375.3
24114.4
30307
34622.2
37330.5
38647
50922.4
49244.9
45720.4
39877
31113.8
23084.4
2213.21
2276.26
2234.57
13059.6
24196.5
30305
34602
37313.1
38629.6
50926.1
49280.1
45730.6
39992.9
34442.4
22946.9
2242.21
2291.65
2275.09
12885.4
21698.1
30197.3
34541.8
37281.7
38606.6
50952.4
49328.5
45802.9
42337.6
34570.6
25260.7
10969.3
2297.79
2292.14
11134.4
20490
28295.4
34475.2
37277.4
38584.4
50996
49343.4
47411.5
42404.1
36323.6
26454.7
11158.5
2298.11
2290.25
11027.6
19841.8
28199.3
33095.1
37245.6
38594.8
50990.2
49327.1
47466.3
42399.6
37127.5
26494.7
11207.7
2297.11
2295.68
10967.4
19791
27284.1
33062.9
37226.4
38586.5
50979.9
49324.9
47480.7
43609.1
37093.3
26505.7
11255.1
2296.14
2294.1
10983.5
19784.2
26858.8
33071.5
37239.3
38601.5
50972.9
49308.4
47480.9
43605.3
37088
26506.8
11270.7
2295.86
2293.49
11006.2
19815.2
26889.7
33112.9
37268.3
38624.4
50960.1
49309.1
47467.5
42392.3
37118.6
26501.6
11281.6
2296.91
2298.92
11052.4
19881.3
27395.6
33177.3
37322.9
38665.6
50906.1
49281.1
45756.8
42445.1
36302
26476.4
11248.5
2298.43
2294.62
11161.3
19995.1
28372.8
34599.1
37383.3
38683.1
50873.7
49229.2
45685
39963.8
34527.8
23235.6
10116.3
2295.41
2302.58
12004.1
21867.8
30359
34683
37405.7
38723
50866.5
49193.2
45678.8
39856.9
31139.3
23247.3
2399.08
2285.58
2370.03
13447.9
24375
30464
34742.3
37443.7
38753.4
50870
49198.9
45704.1
39919.5
31294.8
21855.2
2417.97
2276.9
2398.63
15558.8
24289.1
30453.8
34763.3
37462.7
38774.4
50871.3
49200.8
45716.4
39916.9
31248.6
21752.2
2434.54
2263.49
2411.23
15619.7
24330.6
30458.2
34784
37473
38784.8
50333
48673.3
45220.8
39704.9
30499
20140.6
2224.72
2285.42
2186.73
18117.8
26752.7
32869
37042.7
39574.8
40795.9
50324.4
48667.5
45206.6
39689.2
30602.7
20188.5
2233.13
2283.96
2201.19
18007.8
26630.1
32808.7
36991.4
39547.4
40773.6
50307.5
48643.4
45157.5
39465.4
31475.7
20326.2
2222.17
2288.99
2224.89
14257.5
26730.9
32808.9
36951.8
39515.1
40741.6
50298.6
48658.3
45153.6
39463.3
33134.2
20756.3
4792.55
2247.45
2267.17
14132.3
23502.5
32698.7
36863.1
39455.3
40700
50305.1
48691.2
45173.4
40822.7
32805.2
22888.6
9945.87
2296.01
2291.05
11969.7
21995.1
30217.1
36786.8
39431.3
40662.6
50337.6
48690.9
46033.8
40735
33873.1
23560.9
9390.57
2304.43
2295.68
11824.8
21142.3
30068.3
34913.5
39416.2
40664.9
50314.9
48658.4
46044.8
40695.1
34381.1
23502.2
9365.04
2299.98
2292.97
11665.7
21025.4
28836.5
34848.4
39391.2
40649.9
50305.3
48649.3
46044.5
41506.2
34315.4
23481.8
9407.68
2297.91
2295.35
11664.6
20990.2
28257.5
34853.2
39404.8
40668.3
50288.8
48626.7
46055.8
41496.3
34303.7
23477.9
9420.44
2298.07
2300.31
11696.7
21043.2
28305.4
34910.4
39444.7
40696
50282.3
48633.7
46024.5
40687.8
34351.7
23499.3
9445.35
2300.58
2305.22
11796.3
21177.6
29005.2
35009.6
39509.6
40746.6
50233.7
48613.2
45086.8
40795.2
33841.4
23584.3
9494.8
2310.24
2308.26
12020.5
21376.6
30339.1
36941.6
39558.6
40778.5
50217.6
48576.3
45068.7
39387.3
32951
21578.1
9681.11
2327.32
2455.13
13042.8
23753.6
32902.8
37031.1
39599.3
40830.1
50222.5
48559.5
45079.2
39403.4
31452.8
20600.3
2433.94
2328.67
2373.75
14536.4
26937.3
32994.2
37110.3
39656.8
40875.3
50237.8
48582.5
45127.7
39628.4
30580.8
20291.2
2355.16
2298.37
2400.95
18139
26796.9
32960.5
37142.8
39688
40908.5
50245.3
48588.3
45142.6
39647.2
30483.6
20223.3
2366.11
2290.91
2412.78
18239.3
26887
33008.9
37183.7
39710.7
40928.7
52109.3
50722.5
47773.4
43111.2
35008.5
23413.5
2226.15
2300.43
2190.63
25469.3
32365
37936.7
41469.9
43552.8
44553.3
52093.1
50703.4
47739.2
43013
34904.2
23302.8
2236.58
2277.78
2387.11
25055.2
32133.1
37803.3
41382.7
43506.1
44517.6
52061
50653.2
47674.5
42627.3
35700.9
23218.6
4880.91
2278.62
2215.33
18635.3
32203.5
37712.9
41291.9
43449.6
44469.3
52038.3
50624.3
47598.2
42574.2
35388.5
23302.6
6116.98
2279.2
2255.97
18077.7
28072.3
37538.5
41156.2
43368.1
44413.3
52024
50616.9
47552.1
42720.5
35005.3
24326.5
9860.91
2263.7
5328.34
15021.9
26005.1
34479
41081.3
43324.5
44364.5
52039.1
50621.9
47532.5
42539.4
35415.5
24686.2
9644.63
2308.85
2549.09
14551.7
24774.2
34250.2
38747.7
43354.7
44370.8
52005.3
50578.7
47483.5
42457.6
35592.2
24552.7
9616.65
2304.08
2291.52
14048.9
24509.9
32678.4
38658.3
43335.1
44353.5
51992.4
50558.7
47463.7
42771.8
35481.6
24492.1
9635.63
2297.22
2292.6
13927.8
24415.9
31922
38665.3
43354.1
44376.5
51965.4
50530.8
47457.3
42745.9
35446.3
24458.8
9626.93
2297.84
2303.4
14021.2
24523.9
32001.9
38740.5
43400.9
44407.9
51960.6
50533.1
47440.7
42412.1
35498.8
24477.1
9636.14
2302.77
2303.71
14363.5
24821.9
32941.3
38869.4
43465.9
44464
51921.1
50498.7
47409.4
42537.9
35311.4
24622.1
9690.48
2297.91
2420.66
15020.1
25218.4
34667.8
41283.6
43477.2
44495.3
51922.9
50500.2
47457.3
42410.4
35079.3
23421.4
8784.72
2301.21
2308.3
16316.8
28356.1
37806.2
41355.6
43527.6
44552.9
51941.6
50528.9
47544.5
42503.1
35577.6
23354.7
5951.58
2317.92
2381.04
18657.9
32455.1
37923.8
41468.2
43602.2
44610.4
51971
50578.2
47609.3
42885.6
34790.9
23229.9
2362.07
2320.75
2485.98
25155.6
32295.6
37963.4
41537.4
43649.1
44655.8
51985.7
50596.3
47641.6
42978.7
34879.8
23297.5
2372.19
2332.98
2437.55
25420.2
32477.8
38065.5
41607.9
43688
44686.9
55869.6
54940.3
52907.7
49731.7
43859
36942.2
2219.52
11542.7
28669.3
40479.9
42036.9
45771.4
47793.9
49049.7
49675.9
55845
54901.3
52836
49540
43522.6
35999.7
2236.34
5838.15
25318.5
39044.7
41521.9
45490.7
47650
48976.9
49624.5
55801.7
54827.7
52779.3
49075.9
44361.3
32797.3
10561.5
2242.56
3042.12
29079.5
41363.2
45106.3
47471.9
48885.2
49554.4
55768
54771.2
52618
49116.4
42153
31498.6
11630.8
2267.02
2235.67
26767.1
36158
44811.5
47267.4
48778.9
49479.9
55743.6
54752.2
52624.3
48069.1
41724.3
30965
13268.4
2247.85
2508.01
21300.8
33430
41296.3
47212.8
48722.1
49425.4
55757.1
54800.5
51718.8
47812.4
41285.9
30592.6
12967.5
2268.62
2282.38
20314.6
31696.4
41030.6
44558.9
48792.4
49447.9
55720
54758.2
51579.1
47722.3
41037.7
30345.4
12960.6
2291.02
2302.36
19458.5
31220.3
39126.1
44447.9
48781.4
49430.3
55697.9
54727.4
51539.2
47410.9
40868.6
30256
13150.5
2318.51
2294.06
19104.3
31034.4
38214.2
44499.2
48811.1
49457.9
55661.1
54685.8
51512.4
47353.4
40771.7
30113.3
13035.4
2304.74
2306.26
19379.1
31248.2
38334.4
44578
48854.7
49488.7
55653.3
54674.6
51495
47578.9
40788.7
30021.5
12771.9
2304.25
2310.31
20390.7
31850.6
39505.5
44695.1
48914.9
49546.7
55608.7
54589.6
52403.8
47675.5
41002.4
30274.5
12809.3
2295.45
2350.91
22160.2
32593.5
41596.4
47451.2
48887.4
49561.5
55619.7
54605.5
52416.4
48853.9
41651.5
30838.4
12344.2
2364.05
2351.96
24051
36558.1
45138.5
47489.5
48945.5
49623.4
55649.2
54663.7
52592.8
48869.7
44127.7
32072
12040.3
2366.66
2575.93
28076.4
41673.8
45341.1
47657.7
49041.2
49696.4
55688.5
54735.3
52648.3
49325.5
43311.4
35607.7
2421.4
7091.13
25795.1
39188.1
41695.3
45646.8
47800.6
49116.5
49759.5
55710.4
54771.6
52714.3
49499.3
43623
36188.3
2432.14
10725.5
26758.1
40079.4
42054.9
45860.1
47917.9
49177.4
49804
60957.1
60637.2
60003.8
59729.2
58853.3
67787.9
87716.9
79201.6
71094.1
60141
55153.8
55574.2
55350.9
55536.6
55679.9
60927.6
60580
59886.4
59374.3
58239.6
65781.4
84231.3
74254.4
66151.5
58500.3
54417.1
55153.8
55164.2
55441.5
55615.7
60883.4
60487.9
59792.2
58463.6
57966.2
52759.6
54419.5
50915.3
44539.1
48113
53613.5
54359.7
54906
55310.4
55523.7
60851.7
60438.3
59572.3
58488.2
53819.4
48815.1
35019.5
12298.7
19230.8
44225.5
48620.1
53880.5
54636.4
55178.3
55430.2
60836.8
60437
59624.6
56399.6
53723.5
46159.4
27405.4
2256.75
3701.02
35904.5
45399.3
50617.6
54536.4
55114.3
55367.8
60860.1
60462.7
57998.7
56220.5
51916.1
44438.3
25423.4
2241.92
2302.13
34422.5
43363.2
50427.7
52061.9
55111.8
55387.9
60825.4
60429.8
57871.3
56127.9
51074.2
43956
25453.8
1810.51
2300.83
32327.9
42754.1
48402.8
52006.8
55101.2
55365.2
60800.9
60400
57814.3
54959.7
50885.7
43923.7
26150.7
2273.94
2307.12
31236.8
42456.4
47351
52075.3
55133.1
55393.8
60755.7
60343.7
57763.4
54873.8
50670.1
43394.5
25366.5
5129.57
5013.73
31896.1
42764.3
47491.5
52147.5
55164.7
55418.7
60741.7
60319.4
57726.7
55841.9
50563.2
42856.2
23987.6
2493.01
2424.87
34746.9
43668.9
48831
52238.2
55226.1
55480
60680.6
60244.5