/*--------------------------------*- C++ -*----------------------------------*\
| =========                 |                                                 |
| \\      /  F ield         | OpenFOAM: The Open Source CFD Toolbox           |
|  \\    /   O peration     | Version:  v2012                                 |
|   \\  /    A nd           | Website:  www.openfoam.com                      |
|    \\/     M anipulation  |                                                 |
\*---------------------------------------------------------------------------*/
FoamFile
{
    version     2.0;
    format      ascii;
    class       volScalarField;
    location    "0.032";
    object      p;
}
// * * * * * * * * * * * * * * * * * * * * * * * * * * * * * * * * * * * * * //

dimensions      [1 -1 -2 0 0 0 0];


internalField   nonuniform List<scalar> 
449343
(
106751
106914
107195
107497
107681
107575
106921
105654
103817
101612
99328.8
97244.4
95557
94383.4
93784.1
106733
106897
107179
107483
107671
107567
106916
105654
103821
101618
99334.3
97246.8
95555.1
94377.8
93776.5
106716
106881
107166
107474
107665
107566
106921
105665
103840
101642
99357.7
97264.7
95565.2
94381.2
93776
106697
106865
107153
107464
107658
107561
106923
105675
103858
101667
99384.8
97285.9
95576.8
94384.1
93773.9
106674
106843
107134
107449
107644
107548
106912
105669
103861
101677
99398
97294.8
95576.7
94376
93762
106644
106814
107106
107420
107614
107513
106876
105636
103833
101656
99381
97276.1
95550.9
94343.6
93725.7
106605
106774
107065
107376
107565
107456
106813
105567
103765
101594
99320.6
97217.9
95490.5
94280.8
93661.6
106556
106724
107011
107317
107498
107378
106721
105466
103658
101489
99218.9
97119.3
95394.3
94186.8
93568.9
106499
106664
106947
107245
107418
107283
106615
105346
103530
101352
99081.4
96986.4
95268.6
94067.3
93452.8
106437
106599
106875
107165
107331
107182
106502
105220
103389
101198
98926.5
96833.7
95125.4
93932.9
93323.2
106373
106532
106802
107085
107243
107085
106393
105098
103251
101048
98769.6
96679.9
94980.7
93796.8
93192.1
106313
106469
106733
107009
107162
106997
106297
104991
103130
100915
98629.1
96540.7
94848.4
93671.6
93071
106260
106413
106673
106944
107092
106924
106218
104904
103033
100807
98514.4
96426.1
94738.5
93566.6
92968.8
106216
106367
106625
106892
107037
106867
106157
104839
102961
100728
98430.1
96341.7
94656.6
93487.5
92891.5
106184
106335
106590
106856
107000
106828
106117
104796
102914
100678
98378
96289.4
94605.3
93437.5
92842.3
106569
106781
107161
107618
107990
108111
107595
106274
104191
101650
99067.5
96782.2
94981.7
93752.1
93130.5
106552
106764
107147
107607
107982
108107
107596
106281
104205
101667
99083.5
96792.4
94985.1
93750.2
93125.8
106535
106750
107137
107602
107984
108113
107610
106308
104243
101714
99128.4
96825.8
95005.3
93760.3
93130.5
106517
106735
107127
107598
107986
108117
107622
106330
104285
101768
99184.1
96867.8
95029.7
93771.3
93134.2
106495
106715
107112
107589
107980
108105
107618
106339
104299
101805
99227.7
96898
95041.9
93770.5
93128.2
106466
106688
107088
107568
107957
108078
107586
106313
104286
101796
99230
96895.7
95024.9
93742.5
93094.6
106428
106650
107051
107528
107909
108026
107522
106238
104215
101737
99184.2
96843.6
94965.7
93679.8
93029.9
106379
106600
106997
107469
107840
107942
107418
106074
104083
101617
99075.2
96737.6
94862.7
93580.9
92932.9
106322
106540
106931
107393
107755
107839
107301
105982
103937
101460
98915.3
96587
94725.2
93452.7
92810
106259
106473
106856
107308
107663
107725
107174
105840
103770
101276
98719.1
96407.7
94566.8
93308
92672.7
106195
106404
106779
107220
107566
107619
107060
105706
103610
101100
98532.5
96231.1
94407.9
93163.2
92534.7
106134
106339
106706
107138
107477
107532
106961
105593
103491
100950
98369.3
96075.3
94265.7
93031.4
92408.5
106080
106282
106644
107069
107403
107458
106884
105511
103392
100832
98241.6
95951
94149.7
92922.4
92303.1
106036
106236
106594
107015
107345
107399
106824
105446
103317
100747
98150.9
95862
94065
92841.4
92224
106004
106203
106559
106977
107306
107359
106784
105403
103270
100696
98096.9
95808.4
94012.9
92790.8
92174.2
106111
106431
107042
107865
108712
109407
109315
107853
105108
101684
98369.5
95628.8
93583.2
92234.6
91566.6
106094
106416
107031
107860
108713
109413
109329
107881
105149
101731
98411.3
95657.5
93598.9
92241.1
91568.6
106078
106404
107026
107866
108733
109441
109366
107947
105239
101841
98510.8
95728
93642.4
92266.8
91585.4
106062
106392
107024
107879
108767
109463
109396
108025
105335
101976
98647.1
95822.7
93697.3
92296.9
91603.4
106042
106377
107019
107886
108774
109465
109366
108012
105377
102103
98770.4
95905.2
93739.2
92313.4
91609.6
106015
106355
107007
107880
108773
109443
109333
108007
105399
102125
98849.4
95943.8
93741.4
92295.7
91582.4
105977
106320
106974
107855
108727
109400
109262
107924
105316
102059
98864.4
95902.6
93686.3
92232
91515.7
105930
106271
106921
107797
108655
109322
109164
107716
105132
101903
98730
95773.9
93566.7
92120.9
91408.6
105872
106209
106852
107713
108555
109184
108984
107576
104921
101696
98522.1
95582.9
93400.6
91972.4
91269.9
105808
106139
106770
107608
108453
109039
108826
107386
104686
101451
98176.6
95337.9
93203.1
91804.6
91115.2
105743
106066
106682
107503
108330
108925
108708
107222
104473
101199
97901
95107
93013.3
91639.6
90962
105681
105997
106601
107406
108223
108840
108647
107150
104362
100986
97681.9
94914.2
92848.6
91493.5
90824.4
105627
105939
106533
107326
108134
108760
108586
107066
104276
100843
97519
94767.5
92720.2
91376
90712
105583
105892
106480
107266
108067
108693
108529
106997
104200
100744
97413.9
94669.6
92630.1
91291
90629.4
105551
105859
106444
107226
108025
108651
108489
106955
104152
100690
97357
94613.9
92576.6
91239.1
90578.3
105245
105724
106680
108093
109820
111552
112671
110932
106720
101439
96885.7
93515.3
91180.6
89711.6
89004.7
105228
105709
106671
108092
109832
111575
112701
110995
106806
101536
96969.7
93572.2
91214.4
89730.6
89016.5
105212
105699
106672
108113
109878
111643
112782
111147
107006
101778
97166
93701
91293.2
89779.5
89051.3
105196
105690
106680
108153
109949
111755
112749
111360
107234
102164
97471
93881.8
91395.2
89838.7
89091.2
105175
105678
106688
108187
110023
111767
111945
111067
107992
102538
97777.8
94060.6
91481.8
89880.2
89113.9
105150
105662
106701
108249
110088
110926
111867
111098
108138
103752
98064.3
94172.8
91515.3
89874.9
89095.2
105112
105630
106678
108243
109378
110921
111788
111009
108060
103724
99195.2
94125.1
91453.7
89805.5
89023
105064
105584
106633
108191
109306
110857
111695
110736
107841
103520
98983.2
93943.8
91307.2
89674.8
88898.1
105007
105520
106556
108095
109208
110718
111491
110558
107554
103209
98693.3
93684.6
91087.6
89492.6
88736.9
104944
105445
106459
107961
109730
110536
111299
110340
107251
102866
97015
93345.9
90836.9
89291.7
88558.1
104880
105369
106350
107793
109533
111142
111237
110153
106984
101227
96558.2
93027
90602.4
89102
88384.9
104819
105299
106258
107673
109379
111062
111851
110239
105895
100827
96226.9
92776
90411.8
88938.9
88233.3
104767
105240
106183
107573
109263
110939
111923
110126
105866
100587
96002.6
92607.4
90272
88812.6
88112.9
104725
105193
106127
107503
109180
110854
111867
110048
105773
100460
95884.5
92505.7
90179.6
88724.6
88027
104694
105160
106090
107460
109132
110807
111837
110013
105737
100413
95831.3
92452.5
90127.1
88672.4
87975.1
103773
104424
105773
107918
110920
114674
118732
116259
109107
100118
93875.9
90005.9
87550
86090.8
85416.8
103754
104407
105763
107920
110941
114717
118780
116324
109257
100297
94016
90095.8
87604.8
86124.3
85440
103734
104393
105763
107950
111022
114848
118935
116522
109655
100727
94341.2
90293.1
87724.9
86200.4
85495.5
103712
104381
105777
108035
111236
115154
116742
116914
111543
101810
94965.5
90600.9
87884.9
86294.6
85560.7
103684
104360
105791
108108
111389
113659
116888
117200
112183
104371
95578.3
90898.4
88026.2
86363.2
85603.4
103654
104352
105834
108316
110498
113883
117020
117291
112443
104875
97831.1
91095.9
88070.5
86372.5
85591.4
103608
104305
105789
107669
110510
113950
115943
116403
112506
105719
98015.2
92890.2
87949.4
86271.7
85505
103563
104264
105802
107610
110480
113875
115820
116135
112201
105439
97805.9
92722.4
87841.3
86103.1
85361.6
103507
104198
105673
107525
110368
113714
115574
115770
111677
104910
97302.2
92357.1
87461.4
85889
85169.1
103453
104138
105596
108028
110167
113449
115373
115421
111169
103318
96593.6
89942.1
87190.3
85669.9
84968.1
103396
104061
105462
107718
110877
113125
115977
115752
110336
102679
93724.4
89487.5
86933.4
85453.7
84776.3
103344
103999
105364
107565
110667
114414
115830
115708
110171
99834.6
93269.9
89216
86728.3
85280
84613.8
103300
103946
105289
107428
110422
114130
118035
115530
108286
99264.2
92953.7
89039.6
86591.1
85151.2
84489.2
103263
103904
105236
107352
110312
114008
117958
115426
108177
99158.1
92854.1
88956.6
86508
85065.8
84403.4
103235
103874
105201
107309
110261
113954
117936
115395
108168
99147.3
92826.9
88919.9
86464
85017
84352.7
101445
102215
103875
106713
111219
118295
124115
129700
116280
95335.8
88086.4
84513.6
82407.8
81276.4
80790.6
101421
102193
103859
106710
111240
118337
124151
129779
116407
95585.9
88277.1
84632.1
82482.1
81324.1
80825.1
101389
102165
103842
106711
111292
118462
124271
130044
116855
96185.8
88674.7
84871.2
82638.7
81425.9
80900.8
101353
102141
103844
106787
111714
116396
124619
130677
117849
101479
89598
85221.9
82852.4
81556.6
80991.4
101303
102088
103803
106859
110512
116747
125181
128779
120127
103669
93557.5
85643.6
82996.9
81645.1
81054.9
101258
102041
103844
106459
110649
115862
123441
128087
121115
106520
94268.6
88309.2
83030.9
81629.1
81044
101195
101966
103800
106475
110778
115860
122478
127981
121321
107450
95942.5
88334
82857.1
81485
80937.6
101141
101897
103795
106490
110078
115279
122337
127553
120557
106650
95423.2
87990.6
84651.3
81233.9
80761.2
101098
101865
103686
106393
109989
115617
122073
126938
119446
105502
94586.8
87407.8
82173.6
81020.7
80548.7
101066
101843
103629
106214
110485
115479
121754
126409
118513
104389
93758
86835
81894.6
80799
80333.9
101028
101804
103499
106507
110123
116265
122339
126956
117310
102429
91205.6
83684.5
81645.9
80593.9
80132.6
101000
101776
103454
106358
111208
115814
123752
129181
115535
99240.3
87270.6
83501.8
81511.3
80433
79967
100971
101739
103395
106229
110750
117813
123519
128973
115417
94370.4
87060.7
83467.9
81408.4
80312.1
79844
100946
101710
103359
106182
110669
117699
123426
128947
115479
94507.8
87103.6
83465.4
81355.7
80238.2
79763
100924
101686
103332
106145
110616
117645
123408
128986
115631
94682.4
87163.8
83476.8
81333
80198.1
79716.6
98042.3
98781.2
100428
103416
108487
115495
132157
162346
119957
87344.3
77455.1
76251.7
75550.6
75317.1
75250.4
98009.5
98749.1
100397
103386
108469
115489
132146
162353
119809
87447.6
77645.2
76374.9
75637.5
75375.9
75294.3
97959.5
98693.7
100336
103306
108361
115485
132109
162450
120279
88194
78025.6
76635.5
75816.4
75495.3
75386.5
97896.3
98628.3
100267
103095
107813
115890
132190
162664
122074
90205.4
82673.6
76892.7
76056.5
75644.4
75495.6
97804.5
98510.4
100052
103204
107836
115051
129379
163168
127756
97176.7
83994.5
80010.3
76149.2
75750.9
75584.9
97711.2
98342.1
100556
103243
107601
115028
128028
158456
134813
101387
87373.3
80316.4
78245.5
75694.3
75574.1
97634
98258.4
100523
103214
107605
114621
127955
158477
134854
101712
88824.9
82127.1
78147.2
75587
75475.6
97563.9
98188
100546
103200
107568
114560
127869
158111
132207
99995.3
88011
81655.3
77888.3
75377.3
75266.9
97544.3
98168.8
100444
103166
107531
114487
127735
157473
128234
96931.5
86445
80845.6
77392.2
75086.9
75055.1
97532.8
98165.6
100393
103040
107448
114409
127612
157003
125964
94444.5
84884.7
79953.1
76923
74797.7
74813.1
97545.1
98248.1
99791.3
102933
107554
114749
127562
156782
124931
93063.1
82559.5
77614.6
74625.7
74610.5
74603.1
97560.5
98288.1
99915
102737
107334
115413
128818
161596
118849
90681.6
79752.9
74938.4
74601.5
74464.2
74438.6
97559.5
98291.1
99926.2
102883
107924
115032
131597
161634
118837
86383.2
76358.8
75181.4
74556.7
74364.6
74319.4
97552.9
98289.5
99931.6
102914
107984
114988
131577
161694
119193
86734.7
76608.5
75270.6
74541.9
74307.6
74244.5
97538.6
98275.6
99918.4
102900
107961
114934
131570
161762
120067
87406.3
76865.3
75369.3
74551.4
74279.8
74204
93509.8
93960
94958.1
96779.4
99758.8
106636
114179
111839
30053.3
56685.6
62157.8
65391.5
67405.1
68658.9
69227.9
93469.5
93917.5
94911.8
96721.5
99707.1
106575
114125
111727
25976
56533.9
62284.7
65512.9
67503.8
68725.7
69279.3
93402.5
93838.8
94824.6
96647.1
99580.4
106439
113976
111520
25763
57359.1
62791.4
65880.3
67724.9
68868.2
69389
93312.6
93719.7
94678.6
96326.1
100917
105961
113601
111000
30037.2
60184.1
65723.2
66570.8
68063.8
69055.9
69527.6
93185.7
93560.2
94433.2
97517
100637
106377
114248
109998
61799.5
70077.3
69465.4
69005
68413.9
69243.5
69662.8
93041.3
93392.7
95613.7
97382.9
101138
106622
113913
108906
78986.2
74761.5
72462.3
69516.3
70087.3
69358.1
69695.9
92964.4
93308.1
95559.6
97279.7
101395
106562
113854
108997
77030.2
76502.9
73314
71111
70047.1
69346.3
69652
92904.2
93237.3
95490.5
97928.2
101375
106555
113965
109726
67699.9
74638
72672.6
71594
69829.8
69187.4
69481.6
92880.4
93226.3
95454
97884.8
101348
106560
114092
110410
37069.3
67960.7
70402.3
70595.3
69348.7
68880.3
69252.1
92870.2
93228.3
95452.7
97184.6
101304
106563
114181
110839
27924.7
62604.8
67869.6
68728.9
68796.9
68513.8
68964.8
92941.4
93317.7
94199.9
97245.8
101004
106571
114260
111079
25396.3
60139.9
66061.6
66624.9
67000.7
68154.2
68706.7
92990.7
93402.5
94373.3
96045.9
100570
105494
113289
111344
25251.9
57466.4
62571.1
64685.7
66646.9
67913.7
68503.9
93014.8
93454
94444.9
96281.5
99251.3
105929
113582
111341
25349.7
55633.9
61208.2
64512.7
66545.8
67791.3
68365.4
93024.8
93476.4
94478.5
96306.1
99313.2
106150
113687
111315
25828.7
56411.1
61607.9
64595.6
66518
67728.3
68284.4
93017.1
93470.3
94477.5
96313.6
99313.2
106165
113684
111232
33972.5
58305.5
62169.5
64787.4
66552.5
67709.3
68246.3
88128.1
88047.1
87860.9
87574.9
87562.2
91747.6
95591.8
108844
11123.6
34538.4
47798.7
54952.2
59619.9
62340.7
63560.3
88085.9
88002.1
87813.4
87522.9
87524.5
91683.7
95527.7
108627
3149.64
34556.9
47869.2
55082.9
59721.6
62410
63615.7
88018.4
87927.3
87735.1
87482.7
87459.3
91549.4
95378.7
108485
4588.53
35145.4
48376.3
55467.2
59964.5
62574
63740
87932.6
87813.9
87623.5
87515.3
90290.1
91456.3
95081.3
108246
5041.5
36500.4
49522.5
56257.1
60379.9
62820.1
63910.8
87823.8
87688.4
87556.4
89556.3
90289.2
93281.1
96061.7
108076
4882.51
38839.6
51653.2
57875.7
60875.1
63105.8
64120.7
87705
87638
89179.2
89460.6
91551.6
94075.7
95904.3
107612
2274.07
40738.5
53671.3
58554.3
62015.7
63340.4
64233.8
87649
87595.3
89063.7
89428.2
92212.9
94028.3
95887
107578
2331.61
45589.3
55276.5
59578.8
62136
63382
64241.2
87595.7
87536.5
88991
90425.7
92185.7
94044.4
95974.3
107677
88475.9
51138.7
55954.9
59893.3
62005.6
63254.9
64107.5
87567.5
87513.8
88955.7
90390.2
92176.4
94068.5
96066.7
107886
48946.6
46134.1
54307.3
59159.7
61585.9
62950.7
63884.2
87536.8
87481.5
88956.8
89357.7
92164.3
94079.9
96113.6
107999
4130.57
38446.7
51579.1
57685.5
61035.1
62570.1
63580.8
87576.4
87448.6
87344.4
89308.7
91493
94117.1
96142.1
108048
3166.74
35279.4
49584
56125.3
59632.3
62146.5
63255.4
87608.8
87497.7
87321.7
87254.9
90127.9
91463.7
95251
108355
2315.54
34151.6
47810.4
54749.6
59149.4
61800.6
62983.9
87628.5
87544.4
87369.2
87151.1
87181.8
91295.5
95112.1
108244
4195.9
34206
47252.5
54364.5
58943.7
61606.2
62803.6
87637.6
87561.6
87391.7
87136.6
87182
91338.2
95204.4
108294
4935.38
34786
47462.9
54365.5
58870.2
61509.5
62699.6
87631.5
87558.3
87390
87136.8
87167.1
91375.4
95235.1
108294
10007.1
36610
48107
54580.6
58908.5
61489.4
62660.2
82607.8
81937
80543.3
78325
78007.6
76905.8
79489.7
2297.67
25786.7
39836.7
48317.4
54184.9
57692
59322.3
82567.8
81895.1
80501.1
78285.9
77956.1
76849.5
79431.3
2295.22
25905.4
39944.7
48446.7
54267.7
57752.2
59372
82511.1
81839.6
80437.6
78229.3
77941.7
76798.5
79320.1
2298.41
25980.6
40295.3
48701.4
54457.8
57898
59487.4
82453.6
81778.3
80369.4
78355.9
78201.1
76697.3
79117.6
2301.98
26364.4
39747.1
49233.8
54774.1
58123
59654.4
82400.1
81730.5
80477.9
80442.4
78764.9
78825.2
79806.2
3240.3
24340.7
39829
49421.1
55132.4
58382.5
59843.2
82345.1
81809.5
81967.9
80711
80175.1
79854.6
79819.4
2245.13
23917.6
40270.6
49786.5
55387.5
58518.2
59979.4
82312.7
81803.1
81900.8
80806.6
81027.1
79989
79954.4
2245.86
26066.1
41438.5
50135.7
55560
58533.5
59990.5
82261.3
81759.4
81855.6
81705.6
81160.4
80110.4
80123.8
10378
30821.9
42563.7
50396.3
55465.2
58439.8
59880.9
82221.2
81711.6
81811.9
81688.1
81152.1
80129.3
80185.2
31652.7
31783.1
42230.7
50053.2
55208
58209
59694.2
82168.9
81649.3
81792.4
80705.9
80991.1
80012.7
80061.1
2455.22
27264.9
40530
49219.6
54823.7
57927.7
59435.9
82135.2
81471.6
80255.3
80258.5
80033
79836.3
79894.1
2335.6
24377.3
39010.7
48510.5
54245.9
57607.6
59117.2
82107.7
81439.3
80039.9
78077.2
78059.1
76713.1
78858.2
2291.63
24200
38849.3
48252.2
53825.8
57268.5
58839
82095.8
81431.9
80050.3
77885.8
77653.4
76571
79111.7
2293.04
25402
39520.6
47842.6
53598
57046.3
58644.3
82092.9
81428.5
80056.3
77891.5
77631.2
76594.8
79215.5
2295.64
25791.2
39451.7
47760.1
53482.3
56922.4
58524.7
82083.6
81421.2
80048.7
77878.1
77577.4
76604.7
79270.5
2291.6
26081.7
39694.3
47835
53479.9
56886.9
58476.4
77873.1
76653.3
74094
69623.7
67314.6
59630.1
55304.4
4662.81
2295.31
24533.2
37093.2
45936.5
51947.8
55586.6
57329.8
77829.7
76606.7
74041.2
69561.4
67247.6
59548.5
55201.7
2300.4
2299.48
24525.8
37232.2
46036
51997.4
55627
57361.9
77768.5
76545.8
73957
69432.9
67156.4
59423.1
55110.8
2829.15
2296.79
21209.9
37542.6
46175.9
52113.8
55721.4
57438.5
77710.2
76492.4
73832.1
69344.5
67055.4
59245.3
55037.6
2691.91
2304.33
21688.8
35226.4
46376.5
52273.9
55859.2
57545.3
77671
76443.3
73754.8
72358.4
66839.7
62190
56945.2
3235.31
2468.29
19198.4
34096.4
45028.6
52413.5
56019.5
57659.5
77634.5
76432.2
75704.6
72237.9
68864.7
63651.2
57206.3
2949.27
2312.66
18395.9
33571.1
45112.4
51613.6
56075.8
57746.6
77590.8
76392.3
75666
72158.6
69825.8
63930.3
57680.7
2577
2369.8
18516.4
33937.5
44556
51699.3
56053.6
57734.8
77530.8
76345.7
75610.9
73533.4
69939.1
64321.8
58345.8
7715.2
2297.18
19390.4
34476.6
44397.9
51647.7
55979.5
57648.2
77484.9
76289
75566.3
73516.4
69930.3
64367.5
58611.1
1958.88
2301.59
21061.4
34664.5
44301.4
51503.7
55826.4
57508
77430
76239.3
75547.6
72067.6
69792.2
63959.7
57838.4
2506.46
2304.04
20563
34127.4
44224.3
51271.9
55643.5
57320.4
77367.5
76141.8
73465.2
72108.7
68730.6
63592.4
57210.2
3272.16
2297.95
19541.3
33412.5
44464
51766.7
55414.7
57062.4
77317.6
76103.4
73449.6
69007.7
66709.4
59119.8
55071.6
2342.92
2284.45
19819.8
34597.5
45616.4
51504.9
55136.7
56834.3
77301.2
76081.7
73504.6
69016.2
66733.9
59159.8
55011.9
2273.08
2296.01
20574.2
36767.4
45369.4
51316.5
54941.1
56664.1
77300.5
76081.2
73528.4
69094.8
66826
59287.5
55148.5
2587.5
2295.84
24072.7
36501.4
45261.6
51194.3
54817.8
56549.4
77293.3
76077.5
73532
69108.6
66848.3
59370.2
55274.1
2670.74
2293.1
24578
36485.7
45199.3
51150.5
54765.4
56495.4
74765.9
73118.2
69619.8
63436.9
52791.5
42978.9
18106.8
2319.52
2302.98
26188.5
38439.6
47034.7
52739.9
56182.7
57827
74708.3
73054.3
69535.8
63330.5
52651.6
42818.3
18149.7
2259.93
2304.79
26186.7
38587.2
47093.5
52760.2
56198
57837.1
74620
72960.8
69410.1
63178.3
52426.5
42403.5
18040.3
2254.27
2302.28
21562.2
38688.7
47156.2
52804.5
56233.9
57868.1
74519.7
72869.4
69233.6
62994.3
56914.2
42010.9
17999
2264.5
2305.79
21512.5
34920.6
47143.3
52827.6
56274.1
57906.2
74435.3
72784.4
69127.3
65622.8
56843.8
45916.7
24526.7
2274.18
2290.85
18247.3
33042.1
44498.6
52819.3
56335.2
57944.6
74363.3
72690.9
70825
65549.5
59125.2
47945
25618.9
2290.34
2277.73
17669.2
31943.7
44341.4
51044.3
56341.3
57980.3
74281.4
72593.9
70813.7
65474
60224.9
48400.5
26428.8
2286.42
2282.45
16986.4
31814.5
43028.9
50994.4
56290.5
57946.2
74202.1
72520.9
70756.1
66901.4
60342.6
49384.4
31720.9
2337.23
2287.97
17004.7
31904.1
42436.5
50925.8
56218.7
57874.8
74153.2
72462.1
70703.5
66864.6
60341.3
49503.8
32199.8
2323.59
2264.83
18072.1
32058
42398.1
50842.1
56110.5
57766.5
74114.4
72435.1
70669.9
65332
60171
48484.7
26615.6
2311.19
2288
18276.6
32009.1
42861.3
50733.3
55986.7
57633.1
74069.5
72410.6
68726.7
65386.1
58907.9
47825.7
25502.7
2244.7
2294.09
18141.8
31856.7
43936.4
52269.1
55817.5
57438.9
74055.6
72395.4
68736
62485.5
56528.6
41884.5
19968.3
2269.86
2283.94
19022.6
34213.1
46343.3
52080.7
55606.3
57265.4
74075.7
72405.7
68839
62593.2
51894.9
41973
18319.3
2259.46
2302.08
20743.1
37671.3
46260.2
51985.2
55471.2
57130.8
74099.1
72435.1
68901.4
62696.4
52065.9
42285.9
18277.4
2250.42
2300.62
25503.9
37600.5
46180.6
51890.1
55370.5
57032.4
74104.7
72447.2
68934.4
62753
52149.7
42507.4
18233.8
2270.03
2303.74
25859.6
37399.1
46097.1
51837.5
55312.8
56976.1
73949.4
72232.1
68556.3
62243.5
51254.1
39468.2
5599.58
2312.76
2307.72
31352.2
43345.5
51290.5
56257.4
59183.5
60570.9
73871.3
72143.4
68431.6
62047.8
51093.6
38966.9
5361.39
2231.82
5613.46
32432.8
43727.3
51333.7
56258.3
59181.5
60564.8
73747.9
72007.3
68243
61764.1
51254
37620.9
6786.79
2286.54
2306.62
25361.5
43830.7
51340.7
56243.2
59180.4
60566.9
73599.8
71863.3
68047
61560.4
53431.1
36743
8526.68
2281.02
2628.82
25237.8
38871.5
51259.8
56187.5
59162.7
60564.6
73463.6
71737.3
67946.1
63001.6
53054.5
39313.5
17679.4
2287.07
2296.43
20717.2
36204.7
47714.1
56129.2
59168.3
60564.1
73343.3
71614.2
68786.2
62779.5
54470
40504.7
18765.3
2285.71
2299.26
20075.2
34511.2
47357.7
53635.9
59181
60580.5
73216.7
71460.8
68686.4
62604.9
55092
40519.8
18199.7
2286.3
2245.11
18942.4
33958.9
45392
53492.5
59123.1
60539.7
73114
71348
68595.7
63544
55015.5
40766.7
17498.8
2292.34
2386.37
19145.6
33669.4
44386.8
53391.8
59054.6
60479.5
73056.3
71283.3
68528.5
63481.7
55015.4
41215.9
21712.7
2295.75
2355.19
18138.5
33588.9
44323.8
53330.7
58967.5
60388.7
73036.2
71274.6
68479.5
62394.8
54983.1
40894.3
19463.7
2640.91
2291.99
19411.2
33873.5
45219.6
53287.1
58865
60280.5
73019.8
71262.1
67381.5
62505.7
54097.7
40274.9
17690.6
2207.34
2295.91
19980.5
34191.9
46985.7
55583.6
58695.7
60112.8
73049.1
71275.9
67377.3
60790.5
52569.6
36485
16197.8
2269.67
2290.44
21403.4
37711.8
50330.8
55417
58519.9
59968.8
73113.3
71335
67498.4
60915.5
50284.7
36552.9
7814.5
2290.06
2304.33
23980.3
42461.7
50320.9
55387.8
58425.6
59858.8
73169.7
71405.7
67622.8
61153.7
50181.7
37878.1
5333.6
2251.3
5209.37
30738.3
42409.4
50288.7
55324.5
58345.7
59775.4
73194.8
71441.1
67692.4
61293.4
50238.9
38374.7
5098.85
2279.59
2304.95
29956.5
41985.5
50211.6
55270.5
58290.8
59723.1
75674.2
74368.6
71585.1
67156.1
57705.3
47810.5
5631.92
2317.68
24173.4
47169.7
53192.5
58917.8
62231.4
64196.3
65142.1
75575.5
74250
71412.3
66816.6
57235
47006
3354.71
2317.21
28818.4
47960.3
53499.6
58914.2
62220.5
64184.1
65128.3
75418.2
74065.4
71159
66249.9
58811
44109.4
12336
2323.15
15232.8
37336.9
53679.7
58799.2
62156.4
64169.6
65118.2
75226.6
73842.7
70828.7
65810
57781.2
42618.3
14561.5
2283.25
6043.64
35625.9
47790.3
58655.9
62040.2
64129.9
65106.3
75040.7
73631.9
70589.2
65503.5
56687
42543.6
19666.2
2297.1
2305.15
28361.8
44330.4
54618.1
62045.6
64133.4
65111.1
74869.1
73458.8
70353.4
64882.5
56455.4
42174.3
18465.4
2306.47
5116.94
26908.7
41815
54207
59167.6
64240.3
65171.5
74695.8
73239.2
70033.5
64437.1
56154.8
41355
18551.8
2471.93
2297.29
24088.3
40483.1
51713.9
59002
64224
65156.4
74568.5
73082.2
69839.8
64539.6
55642.7
40566.1
16167.7
2295.71
2255.31
20129.6
39358.3
50302
58943.3
64183.3
65120
74502.6
73008
69747.7
64407.2
55487.1
40700.9
18035.5
2251.41
2328.31
19038.9
39237.2
50218.4
58881.3
64101.3
65039.6
74503.4
73024.5
69736.3
64046.3
55670.7
41380.8
25045.7
2346.69
5267.06
24908.6
40326
51513.6
58813.2
63975.1
64927.2
74526.3
73048.9
69825.2
64361.4
55668.5
41515.8
18892.9
2263.8
2305.87
26364.6
41186.7
53756.2
61533.4
63732.4
64733.2
74603.2
73147
69972.8
64696.6
55964.2
41107.6
17898.7
2273.92
2303.64
28691.9
45908.3
57608.4
61271.1
63539.2
64577.7
74710.8
73287.7
70231.9
65082
57206.2
42168.2
12922.2
2457.56
7739.89
33923.2
51910.4
57612.9
61279.7
63448
64467.4
74801.6
73409.2
70429.4
65599.5
55885
45201.8
2971.17
2317.38
25909.8
45366.7
51890
57703.5
61245.4
63374.6
64387.1
74847
73473.5
70540.2
65861.4
56120
45598
3564.08
2312.43
18904.1
44397.6
51335.7
57621.6
61176.9
63317.5
64334.6
79478.4
78948.7
77865.1
77387.7
75327.7
82552.1
117244
92625.4
82900.8
72836.6
68429.8
69560.1
70033.6
70609.3
70946.3
79365.2
78797.8
77641.5
76858.8
74451.8
80522.5
113492
74761.2
77890.2
71136.5
68101.1
69346
69976.9
70581.9
70928.8
79182.1
78555.7
77310.2
75478.6
74013.9
66054.1
64797.9
48328.1
48329.1
59970.6
67572.8
68861.8
69849.4
70548.9
70915.8
78956.7
78261.2
76809.5
74716.5
68907.5
61219.7
44261.2
8968.74
25285.6
57114.1
62262.8
68549.6
69709.6
70527.6
70917.4
78735.1
77972.1
76424.3
72362.7
67405.7
57077.3
34009.1
2307.68
17107.5
46812.6
58357.5
64932.1
69754.6
70578.9
70954
78533.5
77745.7
74927.8
71493.5
65248.1
54174.6
30135.5
2434.76
15523.4
43262.4
55248.3
64744.8
67167.6
70729.8
71107.9
78332.5
77488.3
74453.4
70860.4
63817.4
52000.3
28225.4
2265.9
8004.71
37918.3
53444.5
62205.3
67217
70794.4
71146.6
78192.3
77307.4
74180
69936.1
62747.2
49842.4
24692.1
2243.62
2110.58
31877.5
51917.5
60667.4
67337
70823.8
71156.2
78123.7
77225.7
74055.1
69696
62220.4
48633.7
22113.5
2509.47
2368.82
32727.5
51756.4
60559.4
67269.2
70742
71084.2
78142.5
77263
74084.3
70176.8
62472.7
49295.8
23739.5
2307.43
54552.8
42742.9
53055.8
61951.4
67054.6
70580.8
70952.6
78195.4
77324.2
75489.1
70628.7
63639.4
51360.6
27274.1
2204.48
8374.36
41520.6
54096.6
64190.2
69414.2
70309.1
70706.5
78316
77518.1
75823.6
73301.4
66010.8
57042
34797.9
2314.31
9831.09
45495.6
59635.1
67663.8
69089.5
70070.9
70513.6
78462.5
77739.3
76268.8
74066.1
71717.8
60372.3
48899.3
24993.8
38383.2
54515.5
65652.7
67676
69074.8
69945.8
70383.2
78582.3
77922.3
76560
75352.6
72404.9
76933
106610
68428.8
72522.2
68166.7
66289.2
68091.5
69070.5
69872.6
70296.4
78642.7
78018
76710.9
75754.8
72921.2
77346.4
107772
64116.3
75138.3
69156.9
66210
68136.7
69015.3
69816.3
70238.7
84274.8
84548.2
85021.1
87697.8
91822.8
96658.9
124741
126439
109186
90789.7
83024.1
80122.1
78083.2
77409
77148.4
84173.2
84404.1
84859.8
87378.1
91506.7
96970.8
128533
137152
109092
90065.4
82658
79859
78020.6
77376.4
77136
83999.9
84128.4
84588.8
85830.2
89875.7
92661.7
116002
141326
111764
88443.2
81628.6
79251.2
77899.1
77340.1
77133.5
83782.5
83829.4
84047.6
84911.7
84211
89849.6
109237
143480
106802
85999.9
79156.1
78731.5
77789.7
77345.6
77161.1
83568.5
83533.3
83549.5
81751.8
82275.9
82341.2
87749.7
143697
93313
78756.5
76462.5
76690
77833.5
77436.5
77230.4
83382.7
83235.7
81483.9
80882.2
78991.4
77469.4
78891.2
103585
73773.3
73759.8
74281
76835.9
76337.7
77577.6
77425.9
83201.1
82996
81061.2
80206.7
76622.2
74077.3
69002.2
12642.9
45364.8
68496.2
73672.7
75943
76708.5
77715.8
77520.7
83080.6
82847.8
80794.5
78487.6
75325.5
70224.8
56061.3
5114.01
14694.8
65178.1
73935.4
75619.6
77003.5
77822.1
77584.7
83021.6
82777.3
80668.1
78211.1
74556.2
67744.9
47102.1
2316.97
2341.93
60518.6
73444.7
75587.4
76985.6
77759.3
77529
83045.5
82825.1
80692.6
79485.4
74685.4
68390.4
48170.9
2240.5
2304.64
56605.8
72501.2
75927.3
76679.5
77606.9
77399.5
83098
82956.7
82720.7
79969.7
76720.2
71743
60294.4
2221.78
41409.9
67336.9
73058.5
76675.5
77814.2
77375
77161.2
83225.8
83179.2
83161.6
83641
80815.6
82901.8
84409.9
72553.5
65833.2
74993.6
77179.6
78366.7
77519.7
77121.1
76947.8
83370.9
83408.6
83629.6
84493.9
87437.3
88110.1
106607
128000
100258
83714.2
80159.4
78431.8
77394.9
76944.4
76789.7
83486.8
83630.6
83900.2
86018.7
89613.8
94089.7
124417
127162
105438
87968.3
81287.3
78950.1
77383.5
76880.9
76692.5
83538.4
83725.1
84010.2
86281.1
90095.2
93617.1
124732
129883
107643
88355.6
81336
79013.3
77325.7
76814.2
76619.9
88765.4
89418.3
90412.5
92793.9
97584.7
96821.1
103651
108922
102608
95245.5
90744.4
87230.1
84593.4
83412.6
82823.1
88722.8
89361.9
90440.7
93043.7
98086.5
98538
106679
114587
104241
96121.1
91061.8
87265.6
84639.4
83420
82838.4
88636.9
89187
90466.7
92735.6
97188.4
100024
106877
119335
104978
97270.3
90698.2
87107
84673.8
83440.3
82880.3
88507.6
89015.1
90190.7
92700.1
94249.4
101388
113316
130017
113507
98223.1
90611.2
87039.1
84738.3
83510.8
82962
88361.3
88800.5
89832
90286.5
93747.1
99481.9
113973
141917
119488
99629.2
90462.5
86445.1
84933.7
83660
83092.1
88222
88518
88212.5
89607.4
91525
97432.3
114877
149308
120627
100032
91049.2
87290.2
84486.9
83838.4
83286.9
88115.6
88369.5
88027.3
89183.5
90101.3
96173.2
113709
160954
124067
103159
94197
88698
85245.5
84142.2
83475.7
88057.7
88300.7
87878.8
88025.6
89346.2
94203
107074
162568
155651
111410
102663
91253.1
85987.6
84362.4
83612.4
88025.9
88269.4
87827.3
87865
88945
92849.1
101004
118923
178780
123558
102671
91349.3
85979.8
84317.1
83578.4
88042.7
88320.3
87837.4
88849.8
89167.7
93304.4
104072
136360
154785
113398
97216.3
89470.5
85466.2
84118.7
83445
88077.3
88477.7
89397.1
89432.1
90639.9
94932.5
110116
168308
142818
106126
93929.6
88109
85404.9
83890.6
83222.2
88154.5
88632.6
89720.6
92068.2
93156.4
100493
113454
138368
121192
101033
91703.1
87531.8
84960.3
83594.9
82984.7
88214.4
88727.6
89888.5
92028.8
96430.2
99628.4
109869
123714
107584
97779.1
90794.3
87050.4
84614.3
83346.9
82779.3
88250.3
88854.7
89879
92351.8
97429.8
97727.1
106718
113399
104002
95684.8
90799.3
87043.4
84439.3
83217.8
82639.3
88248.1
88870
89832.2
92091.4
97279.3
96651.2
105271
113991
103305
95239.5
90440.6
86851
84289.9
83113.4
82542.9
92195.1
92779.6
93648.8
94453.8
97716.8
96767.5
97551.1
100263
96475.2
95198.1
93213.9
90905.4
89008.9
87981.8
87382.4
92229.3
92835
93788.4
94980.3
98389.6
98023.3
98971.5
100830
98175.3
96414.2
93868.8
91202.2
89181.8
88057.3
87443.8
92282
92851.1
94048.2
95660.8
98678.6
100184
103673
108354
103052
98095
94415.4