/*--------------------------------*- C++ -*----------------------------------*\
| =========                 |                                                 |
| \\      /  F ield         | OpenFOAM: The Open Source CFD Toolbox           |
|  \\    /   O peration     | Version:  v2012                                 |
|   \\  /    A nd           | Website:  www.openfoam.com                      |
|    \\/     M anipulation  |                                                 |
\*---------------------------------------------------------------------------*/
FoamFile
{
    version     2.0;
    format      ascii;
    class       volScalarField;
    location    "0.032";
    object      p_rgh;
}
// * * * * * * * * * * * * * * * * * * * * * * * * * * * * * * * * * * * * * //

dimensions      [1 -1 -2 0 0 0 0];


internalField   nonuniform List<scalar> 
449343
(
106614
106777
107057
107359
107544
107438
106784
105517
103680
101475
99191.4
97107
95419.6
94246.1
93646.8
106615
106780
107062
107366
107553
107450
106799
105536
103703
101500
99216.6
97129
95437.4
94260.1
93658.7
106618
106783
107068
107376
107567
107468
106822
105567
103742
101544
99259.6
97166.6
95467.1
94283.1
93677.9
106619
106786
107074
107385
107580
107483
106845
105596
103780
101589
99306.3
97207.5
95498.3
94305.6
93695.4
106616
106785
107075
107390
107586
107489
106853
105610
103803
101618
99339.2
97235.9
95517.8
94317.2
93703.2
106605
106775
107066
107380
107575
107474
106837
105597
103794
101617
99341.7
97236.8
95511.7
94304.4
93686.5
106585
106755
107045
107356
107545
107436
106793
105547
103746
101574
99301
97198.3
95470.9
94261.1
93641.9
106556
106724
107011
107317
107498
107378
106721
105466
103658
101489
99218.9
97119.3
95394.3
94186.8
93568.9
106519
106684
106966
107265
107438
107303
106635
105366
103550
101372
99101
97006
95288.2
94086.9
93472.4
106476
106638
106914
107205
107370
107222
106541
105259
103428
101238
98965.7
96873
95164.7
93972.1
93362.4
106432
106591
106861
107144
107302
107144
106452
105157
103310
101107
98828.5
96738.8
95039.6
93855.7
93251
106392
106547
106812
107088
107240
107076
106376
105069
103209
100994
98707.5
96619.2
94926.9
93750.1
93149.5
106358
106511
106771
107042
107190
107023
106316
105002
103131
100906
98612.5
96524.2
94836.6
93664.7
93066.9
106334
106485
106743
107010
107155
106985
106275
104957
103078
100846
98547.8
96459.4
94774.3
93605.2
93009.2
106321
106472
106728
106993
107137
106966
106254
104933
103051
100815
98515.3
96426.8
94742.7
93574.9
92979.6
106432
106643
107024
107480
107852
107973
107458
106136
104053
101512
98930.1
96644.8
94844.4
93614.8
92993.1
106434
106646
107030
107489
107865
107989
107478
106164
104087
101549
98965.8
96674.6
94867.4
93632.5
93008
106437
106652
107039
107504
107886
108015
107512
106210
104145
101616
99030.3
96727.7
94907.2
93662.2
93032.4
106439
106656
107048
107520
107908
108038
107543
106251
104206
101690
99105.6
96789.4
94951.2
93692.8
93055.7
106437
106656
107054
107530
107921
108046
107559
106280
104240
101746
99168.8
96839.1
94983
93711.6
93069.4
106427
106649
107049
107528
107918
108039
107546
106273
104247
101757
99190.8
96856.5
94985.7
93703.3
93055.4
106408
106631
107031
107508
107889
108006
107502
106218
104195
101717
99164.6
96824
94946
93660.2
93010.3
106379
106600
106997
107469
107840
107942
107418
106074
104083
101617
99075.2
96737.6
94862.7
93580.9
92932.9
106342
106559
106951
107413
107775
107859
107321
106002
103956
101480
98934.9
96606.7
94744.8
93472.3
92829.7
106298
106512
106895
107347
107702
107764
107213
105879
103809
101315
98758.3
96446.9
94606
93347.3
92711.9
106254
106463
106838
107279
107625
107677
107119
105765
103669
101159
98591.3
96290
94466.8
93222
92593.6
106212
106417
106785
107217
107555
107610
107039
105672
103569
101028
98447.8
96153.8
94344.1
93109.9
92487
106178
106380
106742
107167
107501
107556
106982
105609
103490
100931
98339.7
96049.1
94247.8
93020.5
92401.2
106154
106354
106712
107132
107463
107517
106942
105563
103435
100865
98268.6
95979.7
94182.8
92959.1
92341.8
106142
106340
106696
107115
107443
107496
106921
105540
103408
100833
98234.3
95945.7
94150.3
92928.1
92311.6
105974
106294
106905
107728
108575
109269
109178
107715
104971
101547
98232.2
95491.5
93445.9
92097.3
91429.3
105976
106298
106913
107742
108595
109295
109212
107763
105031
101613
98293.6
95539.8
93481.1
92123.4
91450.8
105980
106306
106928
107768
108635
109343
109268
107849
105140
101743
98412.7
95629.9
93544.3
92168.7
91487.3
105983
106314
106945
107800
108689
109385
109317
107946
105257
101897
98568.6
95744.2
93618.8
92218.5
91524.9
105983
106318
106960
107827
108716
109406
109307
107953
105318
102045
98711.5
95846.3
93680.4
92254.5
91550.7
105976
106316
106968
107841
108733
109404
109294
107967
105360
102086
98810.1
95904.6
93702.1
92256.5
91543.2
105958
106300
106954
107836
108708
109380
109243
107905
105296
102039
98844.7
95883
93666.7
92212.4
91496.1
105930
106271
106921
107797
108655
109322
109164
107711
105132
101903
98730
95773.9
93566.7
92120.9
91408.6
105891
106229
106871
107733
108575
109204
109004
107595
104940
101715
98541.7
95602.5
93420.2
91992.1
91289.5
105847
106178
106809
107647
108492
109078
108866
107425
104725
101490
98215.8
95377.1
93242.4
91843.8
91154.4
105801
106125
106741
107562
108389
108984
108767
107281
104532
101257
97959.9
95165.8
93072.2
91698.4
91020.8
105759
106076
106679
107485
108301
108918
108725
107228
104440
101064
97760.4
94992.6
92927.1
91572
90902.9
105725
106037
106631
107424
108232
108858
108685
107164
104374
100941
97617.1
94865.6
92818.3
91474.1
90810.1
105701
106010
106597
107383
108185
108811
108646
107115
104317
100862
97531.7
94787.4
92747.9
91408.7
90747.2
105688
105996
106581
107363
108162
108788
108626
107092
104290
100827
97494.4
94751.2
92713.9
91376.4
90715.7
105108
105587
106543
107955
109683
111415
112534
110795
106583
101302
96748.3
93378
91043.3
89574.3
88867.4
105110
105592
106553
107975
109714
111457
112584
110878
106688
101419
96852
93454.5
91096.7
89612.9
88898.8
105114
105601
106574
108015
109780
111545
112684
111049
106908
101680
97067.9
93602.9
91195.1
89681.4
88953.2
105117
105611
106602
108074
109870
111676
112670
111282
107155
102086
97392.5
93803.3
91316.7
89760.2
89012.7
105116
105619
106629
108128
109964
111708
111882
111003
107928
102479
97718.9
94001.7
91422.9
89821.3
89055
105110
105623
106662
108209
110049
110882
111823
111054
108094
103708
98025
94133.6
91476.1
89835.7
89056
105093
105611
106659
108224
109353
110897
111764
110985
108035
103699
99170.7
94105.5
91434.1
89785.9
89003.4
105064
105584
106633
108191
109301
110852
111690
110731
107836
103515
98978.3
93943.8
91307.2
89674.8
88898.1
105027
105540
106575
108114
109223
110733
111505
110573
107569
103224
98708
93704.2
91107.2
89512.2
88756.5
104983
105485
106498
108000
109769
110570
111333
110374
107286
102901
97054.3
93385.1
90876.1
89330.9
88597.3
104938
105428
106409
107852
109592
111201
111291
110207
107038
101286
96617.1
93085.9
90661.2
89160.9
88443.7
104898
105377
106336
107751
109458
111140
111929
110318
105973
100906
96305.4
92854.4
90490.2
89017.4
88311.8
104865
105338
106281
107671
109361
111037
112021
110224
105964
100685
96100.7
92705.5
90370.1
88910.7
88211
104843
105311
106245
107620
109297
110972
111985
110166
105891
100578
96002.2
92623.4
90297.3
88842.3
88144.7
104831
105297
106228
107597
109270
110945
111974
110150
105874
100550
95968.7
92589.9
90264.4
88809.7
88112.4
103636
104286
105635
107781
110783
114536
118594
116117
108970
99980.6
93738.5
89868.5
87412.7
85953.5
85279.5
103636
104289
105645
107803
110823
114599
118662
116202
109139
100179
93898.3
89978.1
87487.1
86006.6
85322.3
103636
104295
105665
107852
110924
114750
118837
116419
109556
100629
94243.1
90195
87626.8
86102.3
85397.4
103634
104303
105699
107956
111158
115075
116658
116830
111460
101732
94887.1
90522.4
87806.4
86216.1
85482.2
103625
104301
105732
108049
111331
113595
116824
117137
112119
104308
95519.4
90839.6
87967.3
86304.4
85544.5
103615
104313
105795
108277
110454
113839
116976
117246
112399
104830
97787
91056.6
88031.2
86333.2
85552.2
103589
104285
105770
107644
110486
113926
115916
116376
112479
105693
97990.6
92865.7
87929.8
86252.1
85485.3
103563
104264
105802
107605
110476
113870
115812
116128
112193
105431
97801
92717.5
87841.3
86103.1
85361.6
103526
104218
105692
107540
110383
113729
115586
115783
111690
104922
97316.9
92371.8
87481
85908.6
85188.7
103492
104177
105635
108067
110201
113483
115405
115453
111201
103352
96627.9
89981.3
87229.5
85709.2
85007.4
103454
104120
105520
107777
110936
113179
116031
115806
110390
102733
93783.3
89546.3
86992.2
85512.5
84835.2
103423
104077
105443
107643
110745
114492
115904
115781
110244
99913.1
93348.3
89294.5
86806.7
85358.5
84692.3
103398
104044
105387
107526
110520
114228
118133
115623
108385
99362.3
93051.8
89137.7
86689.2
85249.3
84587.3
103381
104022
105353
107470
110430
114126
118076
115539
108295
99275.8
92971.8
89074.3
86625.7
85183.5
84521.1
103372
104011
105338
107447
110398
114091
118074
115527
108305
99284.7
92964.2
89057.2
86601.3
85154.4
84490.1
101308
102078
103738
106576
111081
118158
123972
129558
116138
95198.5
87949.1
84376.3
82270.5
81139.1
80653.2
101303
102075
103741
106592
111122
118219
124028
129656
116284
95468.1
88159.4
84514.3
82364.4
81206.4
80707.3
101291
102067
103744
106613
111193
118364
124168
129941
116752
96087.7
88576.6
84773.1
82540.6
81327.8
80802.7
101275
102063
103765
106708
111636
116313
124536
130593
117765
101395
89519.6
85143.4
82773.9
81478.1
80913
101244
102030
103745
106800
110449
116683
125118
128713
120061
103605
93493.7
85584.8
82938.1
81586.2
80996.1
101219
102002
103804
106415
110604
115815
123395
128039
121068
106474
94224.4
88265.1
82991.6
81589.9
81004.7
101175
101946
103781
106451
110753
115833
122450
127953
121293
107421
95915.6
88309.4
82837.5
81465.4
80918
101141
101897
103790
106485
110070
115270
122328
127545
120548
106642
95415.9
87985.7
84646.4
81233.9
80761.2
101118
101884
103705
106408
110001
115629
122084
126949
119457
105513
94599.1
87422.5
82193.3
81040.4
80568.3
101105
101882
103668
106249
110519
115511
121785
126440
118544
104420
93789.9
86869.3
81933.8
80838.2
80373.2
101086
101863
103558
106565
110176
116319
122391
127008
117361
102481
91259.6
83743.3
81704.7
80652.8
80191.5
101078
101854
103533
106436
111286
115888
123826
129255
115608
99313.8
87349.1
83580.3
81589.8
80511.5
80045.4
101069
101837
103493
106327
110848
117911
123612
129067
115511
94468.5
87158.8
83566
81506.5
80410.2
79942.1
101064
101828
103477
106300
110787
117817
123538
129060
115592
94625.5
87221.3
83583.1
81473.4
80355.9
79880.7
101061
101824
103469
106283
110753
117783
123541
129119
115763
94819.7
87301.2
83614.1
81470.4
80335.4
79854
97905
98643.9
100291
103279
108350
115353
132014
162201
119812
87202.1
77317.8
76114.4
75413.2
75179.8
75113.1
97891.7
98631.4
100279
103269
108351
115366
132023
162227
119684
87325
77527.5
76257.2
75519.8
75258.1
75176.6
97861.4
98595.6
100238
103208
108263
115382
132006
162345
120173
88091
77927.5
76537.4
75718.3
75397.2
75288.4
97817.9
98549.8
100189
103017
107730
115807
132107
162578
121988
90122
82590.3
76814.2
75978
75565.9
75417.1
97745.7
98451.5
99992.9
103140
107772
114984
129313
163102
127689
97110.5
83930.7
79946.5
76090.3
75692
75526.1
97671.9
98302.9
100512
103199
107555
114981
127980
158408
134765
101339
87326.7
80272.3
78201.3
75655
75534.8
97614.4
98238.7
100499
103190
107578
114593
127927
158448
134825
101684
88796.7
82100.1
78122.7
75567.4
75456
97563.9
98188
100541
103195
107561
114551
127861
158103
132198
99986.7
88002.5
81648
77883.4
75377.3
75266.9
97563.9
98188.4
100459
103181
107543
114498
127746
157484
128245
96942.5
86456
80857.8
77406.9
75106.5
75074.7
97572.1
98204.9
100428
103075
107480
114439
127642
157034
125995
94475.2
84915.4
79985
76957.3
74836.9
74852.3
97603.9
98307
99850.2
102987
107608
114801
127612
156832
124981
93113.4
82611
77668.6
74684.5
74669.3
74662
97639
98366.5
99993.5
102816
107408
115487
128889
161667
118921
90752.7
79826.5
75016.8
74680
74542.7
74517.1
97657.6
98389.2
100024
102982
108023
115125
131690
161725
118927
86476.4
76456.9
75279.5
74654.8
74462.7
74417.5
97670.6
98407.3
100049
103032
108102
115100
131690
161805
119304
86847.5
76726.3
75388.3
74659.7
74425.3
74362.3
97676
98413
100056
103037
108098
115067
131702
161892
120197
87538.8
77002.7
75506.6
74688.7
74417.1
74341.3
93372.5
93822.6
94820.7
96642
99621.5
106494
114034
111693
29907.4
56543.4
62020.5
65254.2
67267.7
68521.6
69090.5
93351.8
93799.8
94794.1
96603.8
99589.3
106452
114000
111601
25849.7
56411.2
62167
65395.1
67386.1
68608
69161.6
93304.4
93740.7
94726.5
96549
99482.3
106336
113871
111414
25656.3
57256.1
62693.3
65782.2
67626.8
68770.1
69290.9
93234.1
93641.2
94600.2
96247.6
100834
105878
113515
110913
29950.2
60100.7
65639.9
66492.3
67985.3
68977.5
69449.1
93126.9
93501.4
94374.3
97453.2
100573
106311
114180
109930
61732.1
70009.8
69399.2
68941.2
68355
69184.7
69604
93002.1
93353.5
95569.5
97338.7
101092
106574
113866
108858
78938.4
74713.7
72414.5
69472.2
70043.1
69318.9
69656.7
92944.8
93288.5
95535.1
97255.2
101367
106534
113826
108968
77002
76474.7
73285.8
71084
70022.6
69326.6
69632.4
92904.2
93237.3
95485.6
97920.9
101366
106546
113957
109718
67691.3
74629.4
72664
71585.5
69824.9
69187.4
69481.6
92900
93246
95468.7
97897
101359
106571
114103
110421
37080.4
67971.7
70413.3
70606.3
69363.4
68899.9
69271.7
92909.5
93267.6
95487
97219
101334
106593
114212
110870
27955.4
62635.5
67900.3
68760.8
68831.2
68553.1
69004
93000.2
93376.5
94258.8
97299.8
101056
106621
114311
111129
25446.6
60190.2
66111.9
66678.8
67059.6
68213.1
68765.6
93069.1
93481
94451.7
96124.3
100644
105568
113360
111414
25321.8
57537.5
62644.7
64764.1
66725.4
67992.2
68582.4
93112.9
93552.1
94543
96379.6
99349.4
106022
113672
111431
25439.2
55727.1
61306.3
64610.8
66643.9
67889.4
68463.5
93142.6
93594.1
94596.2
96423.8
99430.9
106263
113797
111424
25937.9
56523.9
61725.6
64713.3
66635.7
67846
68402.1
93154.4
93607.7
94614.8
96450.9
99450.5
106298
113814
111360
34101.3
58437.9
62306.8
64924.8
66689.8
67846.7
68383.6
87990.7
87909.8
87723.5
87437.6
87424.9
91605.4
95447.1
108698
10977.7
34396.2
47661.4
54814.9
59482.5
62203.4
63422.9
87968.2
87884.3
87695.6
87405.2
87406.8
91561.1
95402.6
108500
3023.58
34434.3
47751.5
54965.2
59603.9
62292.3
63498
87920.3
87829.2
87637
87384.6
87361.2
91446.4
95273.2
108378
4481.9
35042.4
48278.2
55369.1
59866.4
62475.9
63641.9
87854.2
87735.4
87545
87436.8
90206.7
91372.9
94995.5
108158
4954.47
36417.1
49439.1
56178.6
60301.4
62741.7
63832.3
87765
87629.5
87497.5
89492.5
90225.5
93214.9
95994.2
108008
4815.06
38772.2
51586.9
57811.9
60816.3
63047
64061.9
87665.7
87598.7
89135
89416.4
91505
94027.9
95856.5
107564
2258.41
40690.6
53623.5
58510.2
61971.5
63301.2
64194.6
87629.4
87575.7
89039.2
89403.7
92184.7
94000.1
95858.8
107549
2305.15
45561.1
55248.3
59551.8
62111.4
63362.3
64221.6
87595.7
87536.5
88986.1
90418.4
92177.1
94035.9
95965.7
107668
88467.3
51130.1
55946.3
59884.8
62000.7
63254.9
64107.5
87587.2
87533.4
88970.4
90402.5
92187.4
94079.5
96077.7
107897
48957.6
46145.1
54318.3
59170.7
61600.6
62970.3
63903.8
87576
87520.7
88991.1
89392
92195
94110.5
96144.2
108029
4161.22
38477.4
51609.7
57717.4
61069.5
62609.3
63620
87635.2
87507.5
87403.3
89362.7
91544.5
94167.4
96192.4
108097
3216.97
35329.7
49634.3
56179.3
59691.1
62205.4
63314.3
87687.3
87576.2
87400.2
87333.4
90201.4
91537.2
95322.1
108425
2383.95
34222.8
47883.9
54828.1
59227.9
61879.1
63062.4
87726.6
87642.5
87467.3
87249.2
87279.9
91388.7
95202.8
108333
4285.4
34299.1
47350.6
54462.6
59041.8
61704.3
62901.7
87755.4
87679.3
87509.5
87254.3
87299.7
91451.1
95314.8
108402
5044.49
34898.8
47580.7
54483.2
58987.9
61627.2
62817.3
87768.9
87695.6
87527.3
87274.1
87304.4
91507.8
95365
108423
10135.9
36742.4
48244.3
54718
59045.8
61626.8
62797.5
82470.5
81799.6
80405.9
78187.7
77865.4
76763.5
79345
2155.87
25644.5
39699.3
48180.1
54047.6
57554.7
59185
82450.1
81777.4
80383.3
78168.2
77833.5
76726.9
79306.2
2188.76
25782.8
39827
48329
54150
57634.5
59254.3
82413
81741.5
80339.5
78131.2
77838.7
76695.5
79214.7
2210.95
25877.6
40197.2
48603.3
54359.7
57799.9
59389.3
82375.1
81699.8
80290.9
78277.4
78117.8
76614
79031.7
2228.78
26281
39663.7
49155.3
54695.6
58044.5
59575.9
82341.2
81671.6
80419
80378.6
78701.1
78759
79738.7
3172.89
24273.3
39762.8
49357.4
55073.5
58323.6
59784.3
82305.9
81770.3
81923.7
80666.8
80128.5
79806.8
79771.6
2244.42
23869.8
40222.8
49742.3
55343.4
58479
59940.1
82293.1
81783.5
81876.2
80782.1
80998.9
79960.8
79926.2
2239.82
26037.9
41410.3
50108.7
55535.5
58513.9
59970.8
82261.3
81759.4
81850.7
81698.3
81151.8
80101.8
80115.2
10369.4
30813.3
42555.1
50387.7
55460.3
58439.8
59880.9
82240.8
81731.2
81826.6
81700.4
81163.1
80140.3
80196.3
31663.7
31794.1
42241.8
50064.3
55222.7
58228.7
59713.9
82208.1
81688.5
81826.8
80740.2
81021.8
80043.4
80091.8
2476.74
27295.6
40560.7
49251.4
54858
57967
59475.2
82194.1
81530.5
80314.2
80312.4
80084.5
79886.6
79944.4
2368.28
24427.6
39061
48564.4
54304.8
57666.5
59176.1
82186.1
81517.8
80118.4
78155.7
78132.6
76786.7
78929.3
2324.81
24271.1
38922.9
48330.7
53904.3
57347
58917.5
82193.9
81530
80148.4
77983.9
77746.6
76664.2
79202.4
2356.85
25495.2
39618.7
47940.7
53696.1
57144.4
58742.4
82210.6
81546.2
80174
78009.2
77744
76707.7
79325.9
2380.71
25904
39569.5
47877.8
53600
57040.2
58642.4
82221
81558.5
80186.1
78015.4
77709.8
76737.1
79400.5
2413.22
26214.1
39831.7
47972.3
53617.3
57024.2
58613.8
77735.8
76515.9
73956.6
69486.3
67172.4
59487.9
55159.7
4516.28
2167.8
24395.8
36955.8
45799.1
51810.5
55449.3
57192.5
77712
76489
73923.5
69443.7
67124.9
59425.9
55076.7
2298.87
2194.45
24408.1
37114.5
45918.3
51879.6
55509.3
57244.2
77670.4
76447.7
73858.9
69334.8
67053.4
59320.1
55005.4
2746.52
2211.18
21106.9
37444.5
46077.8
52015.7
55623.3
57340.4
77631.8
76414
73753.6
69266.1
66972
59161.9
54951.8
2644.18
2240.65
21605.4
35143
46298
52195.4
55780.7
57466.8
77612.2
76384.4
73696
72294.6
66775.9
62123.8
56877.7
3167.3
2401.49
19130.9
34030.1
44964.8
52354.7
55960.7
57600.6
77595.2
76393
75660.4
72193.7
68818.1
63603.3
57158.5
2910.15
2293.73
18348.1
33523.3
45068.3
51569.5
56036.5
57707.4
77571.2
76372.7
75641.5
72134.1
69797.6
63902.1
57652.5
2566.04
2366.13
18488.2
33909.3
44529
51674.8
56033.9
57715.2
77530.8
76345.7
75606
73526
69930.5
64313.2
58337.2
7706.01
2294.71
19381.8
34468
44389.3
51642.8
55979.5
57648.2
77504.5
76308.6
75581
73528.7
69941.3
64378.5
58622.1
1969.26
2302.05
21072.5
34675.5
44312.5
51518.5
55846.1
57527.7
77469.3
76278.6
75582
72101.9
69822.8
63990.4
57869.1
2512.46
2315.32
20593.7
34158
44256.2
51306.2
55682.7
57359.6
77426.3
76200.7
73524.1
72162.7
68782.1
63642.6
57260.4
3317.67
2306.2
19591.6
33462.8
44517.9
51825.6
55473.5
57121.3
77396.1
76181.9
73528
69086.2
66783
59193.4
55142.7
2353.05
2294.33
19890.9
34671
45694.9
51583.4
55215.2
56912.8
77399.3
76179.8
73602.7
69114.3
66827.1
59253
55102.7
2275.68
2364.46
20667.4
36865.5
45467.5
51414.6
55039.2
56762.2
77418.2
76199
73646.1
69212.6
66938.8
59400.3
55258.9
2685.99
2384.23
24190.4
36619.1
45379.3
51312.1
54935.5
56667.1
77430.6
76214.8
73669.3
69245.9
66980.7
59502.7
55404
2774.51
2405.8
24715.3
36623.1
45336.6
51287.9
54902.8
56632.7
74628.5
72980.9
69482.4
63299.5
52654.1
42836.6
17962.1
2260.29
2195.6
26051.2
38302.2
46897.3
52602.6
56045.4
57689.7
74590.6
72936.6
69418.1
63212.8
52533.9
42695.7
18024.6
2259.58
2195.14
26069
38469.5
46975.7
52642.4
56080.3
57719.4
74521.9
72862.7
69312
63080.2
52328.4
42300.5
17934.8
2253.93
2217.21
21459.2
38590.6
47058.1
52706.4
56135.8
57770
74441.3
72790.9
69155.2
62915.9
56830.9
41927.5
17913.1
2264.24
2235.12
21429.2
34837.2
47064.8
52749.1
56195.6
57827.7
74376.4
72725.6
69068.4
65559
56780
45850.4
24459.3
2273.82
2268.5
18179.9
32975.9
44434.8
52760.5
56276.3
57885.8
74324
72651.6
70780.9
65505.3
59078.6
47897.2
25571
2289.57
2275.81
17621.4
31895.9
44297.3
51000.2
56302.1
57941
74261.8
72574.3
70789.2
65449.5
60196.7
48372.3
26400.6
2283.9
2282.01
16958.2
31786.3
43002
50969.8
56270.9
57926.5
74202.1
72520.9
70751.2
66894
60334.1
49375.8
31712.3
2334.74
2287.93
16996.1
31895.5
42427.9
50920.9
56218.7
57874.8
74172.8
72481.7
70718.2
66876.9
60352.3
49514.8
32210.9
2323.79
2265.25
18083.1
32069
42409.1
50856.9
56130.1
57786.1
74153.7
72474.3
70704.3
65366.4
60201.7
48515.4
26646.2
2334.83
2293.13
18307.3
32039.7
42893.2
50767.6
56025.9
57672.4
74128.4
72469.5
68785.6
65440
58959.4
47876
25553
2245.03
2299.2
18192.1
31906.9
43990.3
52327.9
55876.4
57497.7
74134.1
72473.8
68814.5
62564
56602.2
41958.1
20039.4
2270.16
2289.05
19093.7
34286.7
46421.8
52159.2
55684.8
57343.9
74173.8
72503.8
68937.1
62691.3
51993
42066.2
18410
2259.66
2371.17
20836.2
37769.4
46358.3
52083.3
55569.3
57228.9
74216.9
72552.8
69019.1
62814.1
52183.7
42398.7
18387.8
2250.63
2390.74
25621.6
37718.2
46298.3
52007.9
55488.2
57150.1
74242
72584.5
69071.8
62890.4
52287
42639.9
18363.8
2271.23
2429.09
25996.9
37536.5
46234.5
51974.8
55450.1
57113.4
73812.1
72094.7
68419
62106.2
51116.8
39330.8
5457.34
2302.56
2179.1
31214.9
43208.2
51153.1
56120
59046.2
60433.6
73753.6
72025.7
68313.9
61930.1
50975.8
38849.2
5238.77
2231.59
5495.77
32315.1
43609.6
51216
56140.6
59063.8
60447.1
73649.8
71909.2
68144.9
61666
51155.9
37517.8
6683.78
2285.94
2216.07
25258.5
43732.6
51242.6
56145.1
59082.3
60468.8
73521.3
71784.8
67968.5
61482
53347.7
36659.6
8443.29
2280.72
2543.14
25154.4
38788.1
51181.4
56109
59084.2
60486.1
73404.7
71678.5
67887.3
62937.9
52990.7
39247.3
17612
2286.6
2267.23
20649.7
36138.5
47650.4
56070.4
59109.5
60505.2
73304.1
71575
68742
62735.4
54423.4
40456.8
18717.5
2284.97
2278.94
20027.4
34463.4
47313.5
53591.7
59141.7
60541.2
73197.1
71441.1
68661.8
62580.3
55063.8
40491.6
18171.5
2281.79
2243.7
18914.2
33930.7
45365.1
53468
59103.4
60520.1
73114
71348
68590.8
63536.7
55006.9
40758.1
17490.3
2291.19
2385.95
19137
33660.8
44378.3
53386.9
59054.6
60479.5
73075.9
71303
68543.2
63494
55026.4
41226.9
21723.8
2296.34
2355.85
18149.5
33599.9
44334.8
53345.5
58987.1
60408.3
73075.5
71313.9
68513.9
62429.1
55013.7
40924.9
19494.4
2668.52
2298.31
19441.9
33904.2
45251.5
53321.4
58904.3
60319.8
73078.6
71320.9
67440.4
62559.7
54149.2
40325.1
17740.8
2208.51
2307.86
20030.7
34242.2
47039.7
55642.5
58754.5
60171.7
73127.6
71354.4
67455.8
60869
52643.1
36558.6
16268.9
2270.2
2303.44
21474.5
37785.4
50409.3
55495.5
58598.4
60047.3
73211.4
71433.1
67596.5
61013.6
50382.8
36646.1
7907.7
2290.23
2379.05
24073.5
42559.8
50419
55485.9
58523.7
59956.9
73287.4
71523.4
67740.5
61271.4
50299.4
37995.9
5446.41
2251.58
5327.07
30856
42527.1
50406.4
55442.2
58463.5
59893.1
73332.1
71578.4
67829.7
61430.8
50376.2
38512
5231.28
2280
2429.83
30093.9
42122.9
50348.9
55407.9
58428.1
59860.4
75536.9
74231.2
71447.7
67018.7
57568
47673.2
5494.92
2266.34
24036
47032.3
53055.1
58780.5
62094.1
64058.9
65004.8
75457.8
74132.2
71294.6
66698.9
57117.3
46888.3
3237.72
2283.53
28700.7
47842.5
53381.8
58796.5
62102.8
64066.4
65010.5
75320.1
73967.3
71060.9
66151.8
58712.9
44006.4
12233
2314.27
15129.8
37233.9
53581.6
58701.1
62058.3
64071.5
65020.1
75148.1
73764.2
70750.2
65731.5
57697.8
42534.9
14478.1
2276.56
5957.8
35542.5
47706.9
58577.4
61961.8
64051.4
65027.9
74981.9
73573.1
70530.3
65439.7
56623.2
42477.4
19598.7
2278.15
2249.95
28294.3
44264.1
54554.3
61986.7
64074.5
65052.2
74829.9
73419.6
70309.2
64838.3
56408.8
42126.4
18417.6
2268.43
5069.11
26860.9
41767.2
54162.9
59123.5
64201.1
65132.3
74676.2
73219.6
70009
64412.6
56126.5
41326.8
18523.6
2450.16
2291.11
24060.1
40454.9
51686.9
58977.5
64204.4
65136.8
74568.5
73082.2
69834.9
64532.3
55634.1
40557.6
16159.2
2293.11
2254.76
20121
39349.8
50293.4
58938.4
64183.3
65120
74522.2
73027.6
69762.5
64419.5
55498.1
40711.9
18046.5
2251.82
2337.42
19049.9
39248.3
50229.4
58896
64120.9
65059.2
74542.6
73063.8
69770.7
64080.7
55701.4
41411.4
25076.3
2356.36
5297.69
24939.3
40356.7
51545.4
58847.5
64014.4
64966.5
74585.2
73107.8
69884.1
64415.4
55720
41566.1
18943.2
2266.89
2346.54
26414.9
41237
53810.2
61592.3
63791.3
64792.1
74681.7
73225.5
70051.2
64775.1
56037.8
41181.2
17969.9
2274.54
2351.68
28763
45981.9
57686.8
61349.6
63617.7
64656.2
74808.9
73385.8
70330
65180.1
57304.3
42261.3
13015.4
2458.56
7833.06
34016.4
52008.5
57711
61377.8
63546.1
64565.5
74919.4
73526.9
70547.1
65717.2
56002.7
45319.5
3087.95
2356.41
26027.5
45484.4
52007.7
57821.2
61363.1
63492.3
64504.8
74984.4
73610.8
70677.5
65998.8
56257.3
45735.3
3700.82
2342.93
19041.4
44535
51473
57759
61314.2
63454.8
64471.9
79341.1
78811.3
77727.8
77250.3
75190.3
82414.7
117106
92488
82763.4
72699.2
68292.4
69422.8
69896.2
70472
70809
79247.5
78680
77523.8
76741.1
74334.1
80404.8
113374
74643.5
77772.5
71018.8
67983.3
69228.3
69859.2
70464.2
70811.1
79084
78457.6
77212.1
75380.5
73915.8
65951.1
64694.9
48225.1
48226.1
59867.6
67474.7
68763.7
69751.3
70450.8
70817.7
78878.3
78182.7
76731
74638.1
68824.1
61136.3
44177.8
8882.9
25199.8
57030.7
62179.4
68471.1
69631.1
70449.1
70838.9
78676.3
77913.2
76365.5
72299
67341.9
57011.1
33941.7
2247.05
17040
46745.2
58291.3
64868.3
69695.7
70520.1
70895.2
78494.3
77706.5
74883.6
71449.4
65201.5
54126.7
30087.7
2387
15475.6
43214.6
55200.4
64700.7
67123.5
70690.5
71068.7
78312.9
77468.7
74428.9
70835.8
63789.2
51972.1
28197.2
2260.07
7976.51
37890.1
53416.3
62178.4
67192.5
70774.8
71127
78192.3
77307.4
74175.1
69928.7
62738.6
49833.9
24683.6
2243.54
2110.49
31868.9
51909
60658.9
67332.1
70823.8
71156.2
78143.3
77245.3
74069.8
69708.3
62231.5
48644.7
22124.5
2518.04
2377.67
32738.6
51767.5
60570.4
67284
70761.6
71103.8
78181.7
77302.2
74118.6
70211.1
62503.3
49326.4
23770.1
2313.61
54583.5
42773.6
53086.4
61983.3
67089
70620.1
70991.8
78254.3
77383
75547.9
70682.7
63690.9
51410.9
27324.4
2205.67
8424.54
41570.8
54146.9
64244.1
69473.1
70368
70765.3
78394.4
77596.6
75902.1
73379.9
66084.4
57115.6
34869
2315.77
9900.99
45566.7
59708.6
67742.3
69168
70149.3
70592.1
78560.6
77837.4
76366.9
74164.2
71815.9
60465.5
48992.5
25087
38476.3
54608.7
65750.8
67774.1
69172.9
70043.9
70481.3
78700.1
78040.1
76677.7
75470.3
72522.6
77050.7
106728
68546.5
72639.9
68284.4
66406.9
68209.2
69188.2
69990.3
70414.1
78780.1
78155.3
76848.2
75892.1
73058.5
77483.8
107909
64253.7
75275.6
69294.3
66347.4
68274
69152.6
69953.6
70376
84137.4
84410.9
84883.8
87560.5
91685.5
96521.5
124603
126302
109049
90652.3
82886.7
79984.8
77945.8
77271.6
77011.1
84055.4
84286.4
84742.1
87260.4
91389
96853.1
128416
137034
108974
89947.7
82540.3
79741.2
77902.8
77258.6
77018.3
83901.8
84030.3
84490.7
85732.1
89777.6
92558.7
115899
141223
111661
88340.2
81530.5
79153.1
77801
77242
77035.4
83704
83750.9
83969.1
84833.2
84127.6
89766.2
109154
143394
106716
85916.5
79072.8
78653
77711.3
77267.1
77082.6
83509.6
83474.4
83490.6
81688
82212.2
82275
87682.3
143629
93245.6
78689.1
76396.2
76626.3
77774.6
77377.7
77171.6
83343.4
83196.4
81439.8
80838
78944.8
77421.5
78843.4
103537
73725.5
73712
74233.2
76791.8
76293.6
77538.4
77386.6
83181.5
82976.3
81036.7
80182.2
76594
74049.1
68974
12614.7
45336.6
68467.9
73644.5
75916
76684
77696.2
77501.1
83080.6
82847.8
80789.6
78480.2
75316.9
70216.2
56052.7
5105.43
14686.2
65169.5
73926.8
75611
76998.6
77822.1
77584.7
83041.2
82796.9
80682.8
78223.4
74567.2
67756
47113.1
2325.64
2349.14
60529.6
73455.8
75598.4
77000.3
77778.9
77548.6
83084.8
82864.3
80726.9
79519.8
74716.1
68421.1
48201.6
2250.4
2331.58
56636.4
72531.9
75959.2
76713.8
77646.1
77438.8
83156.9
83015.6
82779.6
80023.6
76771.7
71793.2
60344.7
2263.67
41460.2
67387.1
73108.8
76729.4
77873.1
77433.8
77220.1
83304.3
83257.7
83240.1
83719.5
80889.2
82975.4
84481.1
72623.4
65903
75064.7
77253.1
78445.2
77598.1
77199.6
77026.3
83469
83506.7
83727.7
84592
87535.4
88203.3
106701
128094
100351
83807.4
80257.5
78529.9
77493
77042.5
76887.8
83604.5
83748.3
84017.9
86136.4
89731.5
94207.4
124535
127280
105556
88086
81405
79067.8
77501.2
76998.6
76810.2
83675.8
83862.4
84147.5
86418.4
90232.6
93754.5
124869
130020
107781
88492.9
81473.3
79150.6
77463
76951.6
76757.2
88628.1
89280.9
90275.2
92656.6
97447.4
96683.7
103514
108785
102470
95108.1
90607
87092.7
84456
83275.3
82685.8
88605.1
89244.2
90323
92925.9
97968.8
98420.2
106561
114470
104123
96003.4
90944.1
87147.9
84521.6
83302.3
82720.7
88538.8
89088.9
90368.6
92637.5
97090.3
99921.3
106774
119232
104875
97167.3
90600.1
87008.9
84575.7
83342.2
82782.2
88429.2
88936.6
90112.2
92621.6
94166
101304
113232
129931
113421
98139.7
90527.8
86960.7
84659.8
83432.3
82883.5
88302.4
88741.7
89773.2
90222.7
93683.3
99415.7
113906
141849
119421
99561.8
90396.3
86381.3
84874.9
83601.1
83033.2
88182.7
88478.8
88168.4
89563.3
91478.4
97384.4
114829
149261
120579
99984.6
91001.4
87246.1
84442.7
83799.1
83247.7
88096
88349.9
88002.8
89158.9
90073.1
96145
113681
160925
124039
103130
94168.8
88671
85220.9
84122.6
83456.1
88057.7
88300.7
87873.9
88018.3
89337.6
94194.4
107066
162560
155642
111401
102655
91244.5
85982.7
84362.4
83612.4
88045.5
88289
87842
87877.2
88956
92860.2
101015
118934
178792
123569
102682
91360.4
85994.5
84336.7
83598.1
88082
88359.5
87871.7
88884.1
89198.4
93335
104102
136391
154816
113429
97247
89502.4
85500.6
84158
83484.2
88136.1
88536.6
89455.9
89486
90691.5
94982.8
110166
168358
142868
106176
93979.8
88162.9
85463.7
83949.4
83281.1
88233
88711.1
89799.1
92146.7
93230
100567
113525
138437
121262
101104
91776.7
87610.3
85038.8
83673.4
83063.1
88312.5
88825.7
89986.6
92126.9
96528.3
99721.6
109962
123807
107677
97872.3
90892.4
87148.5
84712.4
83445
82877.4
88368
88972.4
89996.7
92469.5
97547.5
97844.8
106835
113517
104120
95802.5
90917
87161.1
84557
83335.6
82757
88385.4
89007.3
89969.6
92228.7
97416.6
96788.6
105409
114129
103443
95376.9
90578
86988.4
84427.3
83250.7
82680.2
92057.7
92642.3
93511.4
94316.5
97579.5
96630.1
97413.7
100126
96337.9
95060.7
93076.5
90768.1
88871.6
87844.5
87245
92111.6
92717.3
93670.7
94862.6
98271.9
97905.6
98853.7
100712
98057.5
96296.5
93751.1
91084.5
89064.1
87939.6
87326.1
92183.9
92753
93950.1
95562.7
98580.5
100081
103570
108251
102949