/*--------------------------------*- C++ -*----------------------------------*\
| =========                 |                                                 |
| \\      /  F ield         | OpenFOAM: The Open Source CFD Toolbox           |
|  \\    /   O peration     | Version:  v2012                                 |
|   \\  /    A nd           | Website:  www.openfoam.com                      |
|    \\/     M anipulation  |                                                 |
\*---------------------------------------------------------------------------*/
FoamFile
{
    version     2.0;
    format      ascii;
    class       volScalarField;
    location    "0.023";
    object      p;
}
// * * * * * * * * * * * * * * * * * * * * * * * * * * * * * * * * * * * * * //

dimensions      [1 -1 -2 0 0 0 0];


internalField   nonuniform List<scalar> 
449343
(
105764
105882
106076
106246
106289
105962
105097
103620
101589
99219.3
96808.5
94633.3
92886.8
91678.9
91064.2
105747
105866
106059
106230
106272
105944
105078
103602
101573
99206.4
96797.2
94622.2
92874.9
91666.2
91051
105733
105852
106046
106217
106257
105927
105060
103585
101560
99198.6
96793.6
94619.3
92870.5
91660
91043.7
105721
105841
106035
106206
106244
105909
105041
103566
101547
99194
96796.2
94623.5
92872.6
91659.5
91041.6
105711
105832
106027
106197
106232
105891
105020
103546
101536
99192.4
96803.8
94633.2
92879.6
91663.1
91043.4
105701
105823
106018
106188
106220
105875
105003
103532
101528
99195.3
96814.5
94645.5
92888.7
91668.6
91046.8
105691
105813
106009
106179
106209
105862
104989
103521
101523
99198.8
96821.8
94655.7
92895.9
91672.9
91049.5
105678
105800
105997
106168
106197
105850
104975
103506
101512
99195.9
96822.5
94657.2
92896.6
91672.6
91048.8
105663
105786
105983
106154
106185
105840
104969
103502
101508
99186.9
96812.2
94647.5
92888.6
91666.2
91043.1
105646
105768
105965
106137
106172
105831
104963
103497
101497
99168.3
96791.4
94625.8
92871.7
91653.2
91032.2
105627
105748
105946
106119
106158
105822
104958
103491
101486
99148.6
96765.6
94599.7
92849.8
91635.6
91017
105606
105727
105925
106099
106142
105813
104953
103486
101475
99129.7
96738.9
94572
92825.6
91615.4
90999
105585
105706
105903
106078
106125
105802
104943
103477
101462
99109.2
96712.2
94544.6
92801
91594
90979.4
105565
105686
105882
106058
106107
105787
104930
103463
101444
99087
96686.6
94519.1
92777.5
91572.6
90959.2
105545
105665
105862
106037
106087
105769
104913
103446
101425
99065.5
96663.8
94496.3
92755.8
91551.9
90939.2
105629
105796
106089
106411
106631
106524
105789
104241
101951
99237.4
96525.6
94151.5
92295.9
91035.7
90400.7
105613
105779
106074
106396
106615
106507
105770
104224
101936
99226.5
96516.5
94141.6
92284.4
91022.9
90387.2
105599
105766
106061
106384
106603
106490
105751
104207
101925
99223.8
96518.3
94141.8
92280.9
91016.7
90379.7
105587
105756
106053
106376
106593
106471
105726
104179
101909
99224.1
96529.3
94151.3
92284.9
91016.4
90377.4
105577
105747
106046
106370
106585
106445
105698
104153
101881
99228.1
96549.3
94168.8
92294.8
91020.8
90379.2
105568
105740
106041
106366
106579
106430
105676
104136
101879
99238.8
96573.6
94190.8
92308.1
91027.6
90383.2
105558
105731
106034
106360
106567
106422
105664
104128
101877
99254
96604.2
94212.6
92319.4
91033.8
90387
105546
105719
106023
106351
106557
106410
105646
104062
101860
99250.7
96609.7
94217.8
92321.8
91035.2
90387.4
105531
105704
106008
106336
106544
106400
105645
104108
101863
99244.9
96598.6
94207.3
92314.5
91029.5
90382.9
105513
105686
105989
106317
106531
106387
105638
104103
101851
99213.7
96552.9
94175
92295.4
91016.7
90372.9
105493
105664
105966
106293
106511
106379
105638
104101
101836
99189.2
96516.6
94141.3
92271.1
90999.3
90358.9
105472
105643
105943
106271
106491
106377
105640
104102
101841
99165.1
96478.2
94106.7
92245
90979.5
90341.9
105452
105621
105920
106248
106472
106368
105637
104103
101831
99140.1
96443.5
94074.5
92219.1
90958.4
90323.2
105431
105600
105898
106226
106451
106352
105625
104089
101812
99113
96412.7
94046
92194.9
90937.4
90303.7
105411
105579
105877
106205
106430
106333
105608
104071
101792
99089.5
96387.7
94022.1
92172.9
90916.9
90284
105282
105556
106078
106762
107442
107900
107554
105828
102845
99230.5
95780.8
92956.4
90864.6
89493.3
88816.4
105265
105540
106063
106748
107429
107884
107534
105811
102833
99224.9
95776.3
92948.6
90853.4
89480.1
88802.4
105251
105527
106054
106742
107424
107871
107512
105797
102826
99236.7
95791.6
92954.6
90851.1
89473.4
88793.9
105239
105518
106049
106742
107424
107850
107465
105766
102785
99251.1
95827.6
92976.2
90858
89473
88790.6
105230
105512
106049
106748
107426
107810
107374
105667
102712
99292.4
95878.3
93009.8
90873.4
89478.1
88791.8
105221
105508
106053
106756
107440
107778
107336
105653
102719
99333.5
95948.2
93053.7
90893.5
89487.1
88796.3
105212
105502
106049
106761
107424
107780
107318
105638
102719
99361.2
96080.8
93101.9
90916.2
89497
88801.8
105200
105491
106041
106755
107421
107781
107329
105663
102706
99361
96087.3
93112.2
90923.1
89502.1
88805.2
105185
105475
106024
106737
107402
107760
107301
105624
102709
99355.1
96081.4
93102.4
90917.2
89498.4
88803.7
105167
105455
106001
106707
107396
107739
107301
105623
102697
99318.2
95939.5
93049.6
90892.2
89487.2
88796.7
105146
105430
105970
106673
107355
107748
107320
105623
102679
99265.9
95860.2
92997.7
90865.3
89472
88786.6
105126
105407
105941
106639
107327
107760
107386
105698
102729
99205.6
95792.5
92948.9
90835.9
89453.9
88772.8
105105
105384
105914
106608
107297
107754
107405
105702
102745
99167.3
95733.3
92905.4
90808.3
89434.4
88756.6
105085
105362
105889
106581
107269
107734
107396
105685
102719
99125.3
95689.2
92871.4
90783.3
89414.5
88738.8
105065
105342
105868
106558
107246
107715
107380
105667
102698
99096.7
95659.7
92845.5
90761.1
89394.6
88720
104591
105024
105888
107154
108688
110227
111005
108937
104436
98933.2
94237
90792.5
88425.5
86945.4
86236.2
104573
105007
105874
107143
108679
110216
110978
108921
104423
98934.2
94237.6
90785.2
88413
86930.8
86220.6
104557
104994
105867
107145
108688
110216
110960
108929
104456
98987.5
94272.7
90794.6
88408.9
86921.4
86209.3
104544
104985
105868
107163
108707
110229
110772
108915
104337
99095.8
94359.5
90825
88414
86917.7
86202.7
104533
104980
105877
107184
108747
110170
110001
108642
105172
99286.4
94483.8
90883.9
88429.5
86919.8
86200.7
104524
104979
105899
107250
108830
109374
109881
108609
105229
100574
94650.9
90958.1
88454.6
86925.9
86203
104513
104976
105908
107263
108170
109403
109844
108563
105201
100615
95992.4
91024.1
88479.7
86937.9
86209.2
104502
104968
105908
107264
108164
109416
109862
108469
105199
100632
95986.1
91038.9
88501.4
86952
86216
104486
104949
105882
107240
108148
109393
109832
108539
105196
100623
95990
91033.5
88490.3
86948.3
86220.8
104470
104927
105849
107205
108789
109346
109828
108555
105186
100597
94664.3
90976.2
88474.8
86945.8
86222.8
104451
104900
105800
107113
108682
110116
109931
108591
105189
99278.5
94491.3
90899.4
88449
86940.1
86221.1
104432
104875
105763
107064
108616
110143
110708
108866
104304
99074.4
94352.2
90827.9
88422.7
86928.8
86214.6
104414
104853
105730
107016
108568
110107
110864
108846
104392
98940.9
94242.4
90776.2
88397.9
86914.4
86204
104395
104832
105703
106980
108526
110072
110851
108808
104325
98857.7
94178.4
90738.9
88375.2
86897.9
86189.9
104377
104812
105681
106955
108498
110047
110842
108791
104307
98822.8
94143.8
90712.4
88354.4
86879.7
86173
103357
103963
105224
107231
110041
113581
117269
114423
106833
97572.9
91183.5
87255.3
84783.5
83326.4
82657.2
103336
103943
105208
107221
110037
113579
117245
114411
106836
97590.4
91186.7
87243.3
84766.3
83308.1
82638.5
103314
103925
105198
107228
110072
113618
117240
114419
106915
97674.2
91229.3
87241.7
84752.4
83291.9
82621.4
103294
103911
105200
107283
110221
113732
114934
114504
108558
98139.5
91412.4
87271.2
84742.3
83277.9
82606.7
103273
103897
105213
107333
110288
112244
114894
114427
108656
100497
91611.2
87312.2
84741.5
83267.2
82595.9
103259
103900
105264
107524
109420
112414
114891
114287
108594
100777
93902.6
87436.2
84734.7
83265.8
82590.9
103241
103883
105259
106938
109485
112500
113961
113623
108979
101822
94129.8
89338.8
84701.9
83255.4
82591.1
103231
103881
105314
106941
109525
112535
113977
113601
109008
101880
94227.3
89418.4
84830.4
83268.6
82606.8
103213
103856
105233
106913
109499
112517
113951
113606
108985
101880
94214.5
89416.3
84731.1
83284
82618.3
103206
103848
105216
107482
109379
112397
114013
113617
108969
100867
94035
87493
84790.4
83316.8
82639.6
103193
103819
105139
107266
110229
112239
114817
114267
108542
100651
91663
87375.3
84804.7
83327.3
82654
103184
103803
105098
107190
110140
113664
114856
114448
108646
98152.4
91448.5
87321.1
84797.1
83333
82661.3
103172
103786
105065
107103
109958
113518
117165
114384
106871
97659.5
91240.3
87268.8
84787.6
83330.4
82660.9
103160
103770
105041
107063
109890
113443
117131
114317
106764
97547.5
91168
87241.3
84774.2
83321
82653.4
103144
103753
105020
107037
109858
113409
117121
114291
106726
97495.8
91130.4
87219
84757.7
83306.4
82639.7
101327
102059
103642
106359
110686
117508
122995
128173
114194
92797.8
85415.7
81802.4
79693.8
78574.4
78097.9
101300
102033
103619
106344
110688
117510
122981
128154
114184
92805.9
85405.7
81775.4
79667.2
78550.1
78074.5
101267
102002
103593
106326
110700
117559
122966
128133
114162
92791.4
85367.4
81718.1
79630.6
78521.4
78048.3
101231
101974
103585
106379
111094
115378
123057
128195
114159
97369.2
85471.5
81612.7
79579.7
78489.5
78020.8
101189
101929
103550
106444
109859
115651
123314
125776
115570
98099.2
88816.6
81522
79477.7
78443.6
77994.3
101159
101896
103599
106008
109954
114689
121536
124678
115570
100478
89029.1
84009.1
79396.8
78397.4
77974.7
101122
101851
103580
106041
110081
114728
120615
124657
116099
101500
90829.1
84115.3
79331
78358.9
77965.4
101098
101815
103556
106094
109428
114206
120628
124630
116087
101598
90888.5
84185.3
81334.5
78346.6
77983.4
101096
101827
103557
106053
109412
114686
120626
124633
116096
101618
90910.3
84171.9
79403.8
78416.7
78016.5
101107
101846
103553
105952
110027
114717
120585
124667
116123
101555
90919.1
84182.7
79507.5
78494.1
78064.2
101108
101852
103478
106382
109808
115659
121414
125647
115573
100370
89064.2
81664.2
79607.8
78560.6
78104.6
101123
101868
103486
106291
111022
115360
123042
128163
114164
97600.4
85573.7
81732.9
79699.5
78604.9
78132.7
101126
101865
103463
106207
110595
117470
122908
128069
114140
92819.8
85437.6
81808.7
79728.6
78620.3
78146.6
101125
101862
103455
106192
110550
117387
122863
128061
114131
92807.4
85442.8
81832.9
79735.4
78622.5
78148.2
101115
101851
103441
106170
110512
117348
122856
128053
114111
92767.7
85418.3
81824.2
79727.1
78613.3
78139
98280.1
98991
100580
103481
108441
115264
131724
161430
117958
84958.4
74944
73704.9
72998.4
72772.8
72712.3
98244.9
98955.3
100544
103443
108409
115236
131679
161390
117907
84933.9
74898.2
73652
72961.1
72741.8
72683.8
98192.7
98897.2
100477
103351
108280
115182
131560
161303
117885
84913.1
74755.4
73545.5
72900.2
72697.1
72647.3
98129
98829.1
100401
103125
107622
115501
131517
161114
117635
84979.8
78141
73205.9
72801
72639.6
72606.3
98045.2
98721.7
100206
103159
107634
114589
128504
160883
118571
88949.6
77889.8
75429.7
72571.2
72563
72564.1
97965.6
98570.5
100631
103210
107357
114548
127052
155787
123426
91027.3
80238.4
75389.2
74340.9
72478.8
72537.3
97913.9
98514.4
100610
103196
107379
114102
126927
155628
123507
91187.2
81651.3
77050.7
74336.9
72503.2
72547.9
97870.7
98472.2
100653
103207
107367
114068
126877
155576
123595
91366.3
81808.1
77175.8
74449.3
72554.3
72559.1
97886.6
98488.2
100597
103216
107380
114068
126885
155595
123577
91421.8
81881.6
77237.8
74452.6
72592.4
72631
97912
98519.3
100592
103147
107371
114091
126949
155687
123513
91311.2
81812.9
77218.8
74511.7
72637.1
72681.6
97964.7
98644.6
100135
103096
107587
114565
127081
155851
123453
91140.3
80525.3
75640.1
72802.7
72758.2
72743.5
98019.2
98723.4
100305
103042
107442
115378
128503
160958
117749
89283.2
78236.5
73428.3
73011.9
72834.6
72792
98051.5
98760.2
100348
103237
108186
115088
131491
161150
117767
85000.1
74907.3
73722.8
73080.9
72873.1
72819.5
98069.3
98784
100382
103295
108281
115129
131558
161269
117853
84980.2
75010
73787
73105.6
72888.2
72829.9
98067.9
98783.2
100382
103297
108276
115112
131590
161307
117863
84956.5
75021.9
73801.6
73105.6
72884.1
72824.8
94151.7
94586.1
95552.7
97328.1
100251
106932
114395
112206
24933.3
54467.2
60016.1
63192.2
65163.3
66393.2
66951.9
94108
94539.8
95502
97267.2
100196
106873
114339
112082
24204.1
54412.6
59928.6
63136
65127.6
66359.6
66920
94036.8
94456.9
95409.1
97176.5
100062
106746
114207
111931
24592.6
54441.2
59849
63107.9
65086.8
66315.5
66880.5
93943.9
94335.2
95260.8
96869.4
101280
106308
113913
111722
24614.1
54590.8
61237.2
63155.7
65056.7
66271.1
66843.8
93821.7
94181.8
95025.9
97950.4
101025
106672
114616
111429
25299.3
58020.4
62883.6
64533.7
65127.7
66268
66822.4
93688.3
94028
96101.2
97828.9
101463
106882
114390
111020
25800.5
58638.8
64111.3
64818.3
66355.9
66355.1
66833.3
93630.1
93963.5
96065
97748.1
101694
106821
114271
110848
26732.3
59343.2
64767.9
66101.1
66465.1
66463.8
66892.7
93594.2
93916.8
96022
98342.1
101688
106796
114229
110734
26681.8
60158.3
65407.4
66922.1
66676.2
66569
66943.2
93600.6
93934.9
96009.1
98323.6
101681
106795
114238
110769
26936.7
60430.1
65611.1
67059.1
66715.8
66603.2
67014.6
93632.1
93974.8
96040.7
97726.3
101669
106818
114301
110898
26623.3
59849.1
65218.6
66424.3
66684.1
66596.3
67046.2
93738.1
94101.5
94954.5
97825.8
101443
106873
114431
111153
25222.7
58957.2
64532
65085.2
65487.7
66561.4
67087.4
93830.4
94226.6
95163.7
96788.8
101122
105969
113606
111590
24561.1
56635.9
61524.2
63518
65386.9
66564.3
67118.7
93892.4
94317.1
95279.3
97064.3
99972.5
106459
113991
111781
24246.8
54565.2
60098.5
63393.7
65368
66583.3
67139.8
93929.1
94365.8
95338.5
97121.3
100073
106729
114190
111940
24355.8
54534.5
60126.1
63363.4
65362.1
66592.3
67150
93936.4
94375.8
95352.7
97145.7
100091
106778
114262
112038
24256.9
54568.4
60183.9
63377.6
65356.5
66588.1
67146.4
89207.3
89123.5
88927.6
88617
88569.2
92543.6
96278.2
109526
6495.59
33293.1
46388.5
53335.7
57850
60476.5
61652.2
89159.1
89072.4
88874
88559.3
88528.4
92484.9
96223.4
109318
2388.41
33278.7
46302.6
53301.3
57818.1
60440
61615.7
89082.3
88988.4
88788.2
88514.6
88465
92367
96106.4
109192
4028.14
33359.9
46333.3
53328.4
57796
60402.6
61573.4
88986
88865.2
88665.2
88536.2
91172.9
92301.7
95878.5
109024
4656.28
33639.6
46559.9
53551.7
57830.3
60391.2
61546.2
88871.8
88733.4
88591.2
90472.4
91195.6
94131.9
96954.6
108961
2356.21
33691
47351.7
54390.7
57984.1
60456.6
61558.5
88754
88684.5
90114
90392.1
92424.4
94954.8
96893.2
108551
2962.78
34571.2
48258.6
54717.2
58786.5
60585.3
61616.5
88708.3
88652.3
90004.5
90366.4
93074.8
94944.4
96921.5
108405
4187.93
36964.4
49599.7
55653.2
59006
60715.3
61697
88674.7
88612.8
89946.4
91322.2
93053.4
94960.7
96969.7
108338
2294.25
41547.7
51422.3
56498.6
59266.2
60851.8
61777.2
88675.8
88620.6
89931
91300.9
93043.2
94949.1
96962.1
108495
2756.85
42756.7
52040.2
56787.4
59396.8
60926.5
61869.1
88693.1
88626.3
89964.8
90352
93036.3
94924.5
96921.2
108628
5051.03
38835.7
50802.8
56308
59372.8
60939.9
61913.8
88781.6
88645
88514.3
90332.4
92414.7
94950.5
96912.3
108705
3376.48
35686.4
49269.1
55276
58525.7
60871.4
61924.3
88865.3
88748.9
88560.2
88451.5
91149.8
92419.2
96067.7
109100
2374.44
34200.6
47492.7
54113.1
58305.1
60798.2
61922.6
88930.8
88841.1
88650
88395.1
88374.5
92271.7
95963.9
109079
2336.51
33700.6
46722.8
53743.8
58191.5
60772.6
61928.9
88973.3
88891.3
88703.5
88408.8
88404.3
92344.4
96098.2
109204
2504.78
33521.8
46603
53631.1
58151.1
60766.4
61936.8
88985.2
88906.2
88720.5
88429.2
88405.9
92398
96158
109282
2330.68
33568.4
46659.1
53617.2
58135.9
60761.4
61935.2
84142.7
83484.4
82105.4
79864.2
79453.5
78164.5
80553.2
2298.88
25502.1
39375
47441.9
53002.8
56317.1
57855.5
84091.9
83430.8
82050.2
79811.6
79398.1
78111.8
80507.2
2296.16
25456
39294
47399.8
52947.8
56261.7
57801
84016.7
83355.8
81967.2
79739.4
79362.8
78061.9
80416.8
2293.67
25325.8
39317.6
47353
52869.7
56188.8
57724.4
83935
83269.8
81870.6
79832
79602.6
77977.5
80252.8
2296.38
25409
38153.4
47455.5
52816
56127.1
57652.2
83861.7
83200.2
81942.1
81845.1
80139.3
80120.7
81027.7
2292.63
23497.1
37795.6
47029.4
52813
56119.8
57612.1
83794.6
83260.8
83329.5
82088.3
81531.7
81222.6
81226.8
2312.09
24154.5
38002.8
47138.7
52728.7
56081.4
57623.9
83764.9
83253.7
83269.7
82185.4
82394.6
81494.4
81697.9
2282.66
28735.2
39351.1
47392.2
52874.1
56114.7
57658
83729.9
83224.2
83233.4
83046.4
82534.8
81673.8
82046.6
149346
43568.1
41790
48005.8
53058.8
56241.6
57741.8
83728.7
83218.1
83211.2
83036.4
82511.3
81619.3
81921.7
134422
53378.3
43274.1
48514.4
53307.3
56392.9
57884.5
83726.1
83194.3
83231.5
82131.4
82342.6
81411.9
81563.1
2286.82
34974.8
41924
48539.2
53496.8
56549.4
58013.9
83761
83098.4
81848.1
81763.7
81425
81169.3
81201
2295
26880.2
40007.1
48228.4
53539.2
56665.5
58086
83803.1
83140.4
81747.8
79731.3
79597.2
78116.2
80096
2297.26
25171.8
39317.4
48196.7
53435.2
56652
58134.2
83853.6
83195.5
81813.8
79603.7
79255.8
77979.7
80345.1
2297.51
25653.7
39819.6
47889
53379.3
56662.7
58178.7
83894.9
83237.2
81864.8
79645.9
79274.5
78013.3
80437.1
2296
25664.8
39660.4
47821.9
53376.8
56682.4
58214.8
83909.9
83254.9
81883.3
79660.4
79249.8
78020.5
80458.8
2297.07
25721.7
39685.3
47800.4
53376.2
56691.7
58228
79869.4
78690
76203.6
71795.1
69344.2
61372.5
56604.5
2512.9
2298.06
25066.7
37776.4
45834.4
51396.9
54726.8
56323.2
79807.9
78623
76125.6
71702.8
69262.4
61289.8
56559.4
2315.87
2297.13
25054.8
37614.7
45738.6
51283.4
54629.8
56231.2
79715
78526.2
75997.2
71520.1
69132.8
61125.5
56476.5
2314.82
2296.82
21475.7
37501.3
45524.8
51079.2
54467.3
56074.6
79613.7
78425.2
75816.2
71357.1
68955.4
60885.9
56358.5
2440.52
2299.75
21502.1
34573.8
45237.6
50791.4
54256.7
55891.3
79534.1
78331.1
75675.9
74210.8
68645
63811.1
58316.1
3096.91
2295.79
19367.5
32971.3
43217.4
50454
54055.1
55703.2
79468.8
78271.7
77502.1
74040.9
70635.8
65364.2
58823.3
2338.58
2286.67
18578.2
31724.3
42620.1
49158.8
53798.3
55564.4
79417.8
78217.6
77450.1
73931
71578
65892.7
60564.1
2315.23
2287.12
16205.4
30419.2
41426.9
48941.2
53687.2
55497.4
79371.5
78181.9
77396.5
75261.1
71658.8
66329.2
62312.5
41011.9
2304.61
11616.6
28185.6
40901.9
48973.9
53769.1
55563.7
79377.4
78172.7
77385.4
75255.9
71618.4
66160.3
61283.8
24060.5
2375.35
2898.33
29477.6
41555.6
49338.1
54014.7
55768.2
79389.5
78188.9
77423.3
73889.5
71523
65737.2
60199.2
2983.62
13745.4
24996.9
33881.7
43057.8
49870.8
54354
56032.8
79419.4
78212.6
75552
74077.3
70569.8
65311.3
58855.6
3126.93
2295.97
23186.8
34653.5
44334
51323
54712.4
56273
79466.6
78277.5
75666.4
71216.6
68738.4
60850.5
56501.9
2910.03
2295.32
21613.6
35723.3
46133.6
51538.1
54887.3
56470.1
79537.1
78347.4
75819.5
71349.5
68879.5
60981.6
56525.1
2909.66
2296.78
21781.5
38055.6
46159.1
51688.8
55035.7
56621.9
79597.2
78412.2
75915.8
71499.7
69055
61146.7
56603
2311.82
2296.34
25151.9
37997
46225.5
51795.1
55138.1
56733.1
79623.4
78444.1
75958.5
71555.4
69115.5
61209.8
56543.7
2298.07
2297.42
25191.4
38085.2
46244.1
51845
55184.8
56781.3
77205.9
75655
72344
66429.6
56011.3
45635.9
19741.2
2302.26
2304.2
28418.5
40316
47765.1
52801.2
55803.7
57242.5
77121.6
75559.9
72218.8
66272.6
55808.1
45415
19703.1
2297.6
2302.6
28242.3
40025
47558.9
52608.3
55650.1
57106.3
76985.1
75408.6
72013.6
66012.2
55420.3
44847.5
19614.8
2288.92
2331.39
22956.7
39529.3
47131.9
52244
55368.7
56861.6
76819.8
75237.9
71738.1
65691
59426.5
44219.1
19355.1
2283.98
2301.4
22502.4
34970.5
46388.8
51685.1
54964.7
56529.5
76669
75072.7
71530.3
67965
59188.9
47891.6
25671.8
2282.23
2297.49
18578.4
32060.2
42833.9
50999.1
54520.6
56164
76545.9
74913.9
73009
67789.5
61272.5
49808.6
26620.6
2286.82
2299.61
16179.9
29104.9
41487.6
48494.4
54078.5
55847.5
76444
74786.8
72950.6
67603.3
62224.2
50198
27934.2
2261.29
2269.61
7358.54
25342.4
38840.6
47876.7
53819.1
55671.1
76380.3
74724.3
72880.5
68941.9
62181.9
50589
31021
2578.58
2319.77
2375.48
21394.4
37307.8
47743
53848.7
55710.3
76396.6
74731.9
72869.6
68924.9
62143
50473.4
29373.7
2310.07
2270.11
2146.7
23131
38058.6
48208
54179.9
55969.8
76453.9
74811
72926.4
67570.1
62149.5
50138
28732.5
2287.67
2322.36
17505.5
29272.3
40780.6
49057.9
54694.7
56368.1
76537.7
74931.1
71361.5
67817.9
61170.5
49769.4
26765.2
2272.92
5098.33
21358.8
32408.3
43680.6
51939.6
55256.1
56803.2
76656.1
75065.5
71544
65462.7
59157.5
44093.1
20961.9
2295.62
2298.79
21344.6
35902.6
47391.9
52523.7
55679.7
57185.9
76792.6
75207.4
71797.1
65769.5
55148.1
44445
19232.1
2294.11
2303
22957.2
40122.6
47842.9
52938
56021.3
57488.5
76898.6
75330.2
71975.6
66008.7
55526.5
45015
19368.7
2290.21
2302.54
28249.5
40435.6
48104.1
53197.5
56239.5
57688.9
76949.2
75392.4
72070
66137.3
55707.2
45337.4
19550.1
2272.47
2303.26
28567.1
40675.3
48235.6
53324.7
56341.2
57781.3
76757.6
75220.2
71915.9
66187.3
56032.4
44113
8572.24
2270.88
15845.4
37865.2
46969.9
52925.6
56880.1
59200.5
60318.3
76644.9
75091.3
71737
65916.4
55826.3
43194.6
9302.08
2280.24
17428.3
37513.4
46574.7
52597.8
56606.6
58995.8
60142.4
76457.2
74876.3
71437.3
65478.2
55735.7
41747.4
9601.34
2277.02
8622.08
29422.4
45763.3
51934.6
56093.4
58619.3
59824.6
76222.9
74620.8
71081.8
65075.8
56994
40417.8
9624.24
2295.31
5593.95
27823.2
39822.4
50811.6
55296.5
58069.5
59387.5
75995.6
74370.2
70818.7
65966.1
56291.5
42174.4
18985.9
2281.1
4663.75
21358.2
35367.9
46105.2
54350.7
57442.5
58902
75800
74155.1
71370.4
65533.5
57224.1
42921.4
19486.9
2282.76
3539.32
16225.6
30629.6
44088.4
50995.4
56903.6
58474.7
75644.8
73957
71191.5
65175.6
57507.9
42522.5
21308.4
2306.03
2246.53
2386.91
25689.8
40442.5
50087.5
56544.2
58231.6
75565.6
73861.4
71080.7
65979.1
57215.5
42204.7
17888.3
2278.77
2320.85
2273.34
22384.6
38414.2
49845.1
56541.3
58252.8
75589.4
73890.9
71079.1
65953.6
57176.4
42243.7
18917.8
2301.57
2288.16
2266.57
24478.7
39244
50371.3
56922.4
58545.1
75697.5
74031.5
71171.1
65163
57377.7
42410.9
19948.4
2290.44
2159.76
15444.4
29990.6
42559.5
51419.8
57550.5
59027.1
75851.5
74204
70591
65573
57036.4
42713.1
19429.3
2258.94
6429.7
21447.2
34112.4
46705.9
55349
58233.6
59591
76048.9
74424.8
70831.6
64718.1
56266.4
40000.9
17991.9
2272.98
2339.86
24736.2
40221.3
51907.9
56213.7
58851.4
60107.6
76258.7
74658.2
71174.8
65141.8
55244.3
40606.3
9257.78
2279.58
4854.72
28555.1
46440.8
52736.8
56866.7
59347.1
60523.6
76420.3
74851.5
71462.8
65586.5
55361.5
43007.5
7423.9
2228.43
13645.6
37296.2
46951.9
53205.1
57276.6
59663.8
60801.3
76501.9
74951.4
71619.1
65841.3
55602.4
43768.7
7948.27
2231.18
15886.3
38122.4
47427.9
53484.2
57490.5
59819
60935.1
78676.2
77637
75451.6
72123.6
65207.2
56731.9
38060.6
2367.98
44191.6
54419.9
58008.8
61171.8
63210
64443.9
65075.5
78538.6
77472.2
75215.2
71661.3
64554.7
55262.7
32007.6
2334.65
42990
53469.3
57382
60713
62876.1
64209.5
64879.8
78306.6
77194.4
74826.8
70905.9
65366.4
51706.3
24530.8
3383.34
22556.9
43652.2
56586.3
59864.1
62289.6
63793.6
64534.2
78013.3
76839.5
74290.2
70140.7
63047
49749.4
22840.5
2347.8
12125.6
40632.9
49584
58535.1
61361
63193.9
64063.4
77720
76470.7
73807
69216.1
61313.4
48119.9
23868.7
2328.22
10933.5
30301.7
43787.9
53121.1
60352.2
62503
63549.3
77460.2
76182.5
73294.1
68196.1
60179
46168.5
22075.2
2243
2285.43
21335.7
37375.9
50747.7
56474.1
61991
63112.7
77258.7
75914.5
72845.3
67508.2
59299.7
44278.8
18703.4
2290.97
2269.97
7968.73
31727.4
46480.2
55492.5
61635.3
62866.1
77166.2
75791.6
72647.8
67462
58612.3
43329.2
18260
2313.29
2660.47
2273.01
28730.6
44170.8
55237.6
61635.2
62887.1
77202.9
75842.7
72661
67427.2
58533.8
43250.2
18827.8
2263.67
2249.02
7124.76
30891.6
45008.5
55752.5
62017.6
63184.7
77358.9
76050.5
72858
67548.7
59030.6
43937.1
18993.5
2300.33
2341.1
18999.3
36103.5
48621.7
56855.3
62654.4
63684
77580.2
76296.8
73538.8
68286.4
59885.3
45500.8
20942.1
2306.42
8169.53
27407.6
41109.6
53573.2
61402.1
63336.2
64275.2
77849.5
76641.7
74004.3
69658.9
61393.3
47550.9
22546.2
2306.95
8741.14
35100.9
49745.6
59767
62363.2
64036.8
64838.6
78125.1
76985.7
74549.4
70489.5
64691.8
49819.1
21169
2386.77
21682.2
43021.8
57576.4
60830.3
63158.9
64597.7
65300.4
78337.2
77251.2
74947.8
71311.1
63966.6
54677.4
30104.8
2329.57
41789
54183.2
57961.3
61458
63648.2
64958.9
65612
78446.5
77390.5
75167.6
71758.8
64655
56158.2
35606.4
2411.15
43986.3
54945.9
58618.8
61863.5
63922.8
65146
65767.8
82380.7
82155.9
81753.4
82414.5
84301.6
90895.9
137982
154986
100934
79007.2
73196.3
71541.8
70914.3
70811.6
70856.5
82230.7
81959.3
81477
81804.3
83171.7
89472
135858
139686
97345.6
77307.7
72251.2
70981.2
70569
70581.6
70670
81975.7
81627.1
81040.6
80480.6
81736.4
78093.2
102050
99314.2
89583
70143.6
70409.9
69923.4
69979.5
70183.2
70348.2
81646.2
81193.3
80293.1
79237.1
75770.9
73810.7
82058.5
66851.6
65181.9
64744.2
64550.9
68470.8
69086.5
69640.8
69921.7
81315.3
80737.5
79616.4
76404
73246.9
66436.3
52310.2
7406.88
33378.1
50521.9
58169
63461.7
68189.7
69025.6
69476.1
81027.5
80390.2
77919.9
75062.9
69763.1
60543
38897.6
2315.67
2394.97
37101.7
51037.7
61373.4
64467.6
68618.1
69129
80808.8
80098.1
77329.4
74177.7
67611.1
56362.5
31008.8
2279.38
2299.09
20068.7
45065.5
57060.7
63656.5
68370.3
68947.7
80716.7
79973.7
77082.2
73176.3
66462.6
53986.6
28275.3
2292.64
7834.49
9068.72
41929.2
54723.5
63515
68402.3
68987.7
80766.4
80039.8
77107.4
73146.4
66338.6
53746.8
28077.1
2262.43
4857.97
18035.4
43800.8
55441.1
63974.2
68723
69256.5
80952.7
80286.3
77386.9
74272.2
67217.9
55518.4
30071
2293
2280.4
31412.7
48965.1
58991
64920
69281.5
69704
81213.7
80603.8
79395.9
75168.8
69413.4
59103.4
35688.6
2264.24
17234.8
43867.2
54619
64036
69234.1
69866.1
70219.2
81530.3
81045.3
80061.4
78822.3
73430.2
69024.1
50251.4
2308.41
41002.4
57579.1
64681.3
69786.6
70150.4
70540.5
70745.5
81849.6
81478.7
80836.3
80146.7
81224.1
74197.4
88350.9
97100.8
84831.5
69004.6
71651.4
71053.8
70952.5
71060.4
71173
82090.6
81804.9
81296.7
81583.1
82697.8
89324.9
135326
135483
97905
78525.3
73116.6
71931.5
71452.6
71408.5
71466.7
82213.2
81974.4
81552.5
82168.4
83777.7
90942.4
136980
153497
101158
79839.3
73967.9
72388.4
71733.7
71593.4
71616.8
86694.7
87179.6
88176
90985.3
97788.7
101737
124983
132170
106575
93875.3
85799.5
80964.1
78430.1
77270.2
76811.7
86566.1
87001
87957.7
90658.7
97091.1
101327
126293
134968
105971
92603.4
85076
80510.9
78147
77084.3
76664.5
86341.7
86670.4
87580.1
89517.6
94550.7
99196.2
113945
135837
105256
91444.9
83008.6
79520.4
77649.3
76761.7
76417.8
86037.8
86256.1
86828.7
88321.1
89331.6
96491
111618
136450
104254
87414.4
80073.4
78236.5
76955
76358.3
76103
85733.4
85822
86101.8
85216.6
86800.5
89916.7
103517
144322
96200.3
80062.7
75775.8
75120.4
76315.3
75937.2
75799.4
85486.8
85440
84054.5
83921.3
83043.4
83588.4
92868.3
163123
75429.8
71279.5
71137.8
73957.6
73778.2
75666.7
75600.2
85305.4
85188.3
83562.8
83082.8
80238.7
78599
73762.6
6921.03
2258.54
58648.7
67603
71138.6
73377
75564.7
75531
85238.2
85101.4
83356.6
81526.6
79089.6
75053
60755.9
10378
2294.83
48439
65501.8
69480.2
73390.4
75656.5
75611
85293.9
85170.8
83397.5
81526.6
78993.6
74741.4
59432.8
2304.28
2142.78
44864.2
66382.4
70017
73737.8
75910.6
75838.8
85470.7
85412.6
83669.8
83247.1
79922.8
77579.6
69403.6
2376.98
2591.92
61229.2
69743.9
72568.7
74377.1
76298.6
76163.3
85712.9
85797.1
86063.3
84245.6
82900.2
82266.6
86208.8
120323
76781.3
74732.3
73721.4
75889.9
77350
76775.2
76549.3
86014.9
86229
86793.3
88276.9
87983
94142.8
106242
160026
105724
85855.4
80728.5
79619.5
78056.4
77277.8
76943.8
86314.8
86645.9
87572.1
89541.6
94703
97890.7
113888
137767
107840
92287.7
84538.6
80785.1
78695.6
77684.7
77277.4
86526.6
86966
87938.8
90765.1
97053.9
101855
127107
137632
108250
94085.2
86221.1
81625.1
79114.1
77968.2
77505.4
86625.9
87111.2
88115.4
91053.8
97590.9
102045
125234
131735
108043
94996.8
86788.4
81960.5
79330.7
78110.1
77618.6
90387.4
91052.1
92273.7
93778.9
98887.9
97477.2
97070
98657.4
94853.7
94686.2
90242.9
86549.9
84136
82740.5
82091.5
90327.3
90976.9
92224.5
94005.8
99196.7
98409.5
99801.1
102459
96311
94858.8
90391
86487.6
84035.7
82654.8
82015.3
90215.1
90796
92111.3
94099
97970.5
100179
103668
110455
100505
94932
89848
86199.9
83832.2
82496.4
81894
90041.7
90582.6
91777.7
94074.5
95846
101176
109212
117440
107502
96060.3
89623.4
85929.5
83572.9
82319.6
81747.9
89850.2
90310.4
91425.3
92067.8
95454
100639
111357
125028
114545
98287.1
89227.8
84869.3
83325.3
82126.9
81617.8
89692.4
90016.9
89996.9
91458.1
93560
99439.8
114748
137487
126510
100887
89219
84838.8
82350.4
81990.6
81561.5
89596.3
89877.9
89783.1
91076.1
92289.1
98392.2
113919
151226
145190
105188
90088
84438.8
82390.1
82022.4
81604.7
89577.3
89851.8
89687.3
90070.3
91826.1
97305.6
110777
156726
153418
108800
91402.9
84561.9
82552.2
82170.7
81732.3
89625.9
89913.2
89746.4
90109.3
91880.9
97461.5
111642
158535
145181
115521
92511.9
85041.4
82838.5
82377.7
81913.6
89751.5
90087.7
89927.2
91312.7
92419.7
98708.9
115138
167049
149243
107084
91900.2
85588.8
83160.2
82627.6
82124.4
89933.7
90429
91619.8
91953.6
93982.8
100044
116426
151920
128813
102894
91233.2
86315.3
84442.8
82977.3
82370.6
90135.7
90712.3
92000.4
94525.6
96200.5
103211
114687
133373
118872
100649
91431.6
87365.4
84705.4
83251.3
82592.1
90308.4
90926
92334.8
94523.1
98784.8
101649
109204
119118
106410
97689.3
91402.8
87527
84911.4
83435.6
82762.6
90403.5
91084.9
92378
94427.8
99666.4
99355.9
101272
104122
98394.1
96345.9
91686.5
87671.4
85035.7
83559.9
82869
90430.3
91121.1
92361.7
94135.1
99185.7
98037.9
98266.2
100141
96722.5
95876.6
91391.1
87628.4
85071.6
83603.3
82912.8
92949.8
93378.2
94314.3
94337.9
96733.6
96115.3
94217.9
96222.2
93228.9
93802.7
91191.6
89381.7
87868.9
86802.2
86247.7
92975.4
93442.1
94407.8
94808.2
97523.3
97108.7
95816.9
97153.3
94508.3
94629.8
91830.4
89640.3
87967.3
86836.1
86255.8
93017.2
93493.7
94558
95660.5
98107.9
99172.1
101078
103506