/*--------------------------------*- C++ -*----------------------------------*\
| =========                 |                                                 |
| \\      /  F ield         | OpenFOAM: The Open Source CFD Toolbox           |
|  \\    /   O peration     | Version:  v2012                                 |
|   \\  /    A nd           | Website:  www.openfoam.com                      |
|    \\/     M anipulation  |                                                 |
\*---------------------------------------------------------------------------*/
FoamFile
{
    version     2.0;
    format      ascii;
    class       volScalarField;
    location    "0.023";
    object      p_rgh;
}
// * * * * * * * * * * * * * * * * * * * * * * * * * * * * * * * * * * * * * //

dimensions      [1 -1 -2 0 0 0 0];


internalField   nonuniform List<scalar> 
449343
(
105626
105745
105938
106109
106151
105825
104959
103482
101451
99082
96671.1
94495.9
92749.4
91541.6
90926.9
105629
105748
105942
106112
106154
105826
104961
103484
101455
99088.6
96679.5
94504.5
92757.2
91548.5
90933.2
105635
105754
105948
106119
106159
105829
104962
103487
101462
99100.5
96695.5
94521.2
92772.4
91561.9
90945.6
105643
105763
105957
106127
106166
105830
104963
103488
101469
99115.6
96717.8
94545.1
92794.1
91581
90963.1
105652
105773
105968
106138
106173
105832
104961
103488
101477
99133.5
96745
94574.3
92820.7
91604.3
90984.5
105662
105783
105979
106149
106181
105836
104963
103493
101489
99156.1
96775.3
94606.3
92849.5
91629.4
91007.6
105671
105793
105989
106159
106189
105842
104969
103501
101503
99179.2
96802.2
94636
92876.3
91653.3
91029.9
105678
105800
105997
106168
106197
105850
104975
103506
101512
99195.9
96822.5
94657.2
92896.6
91672.6
91048.8
105683
105805
106002
106174
106205
105859
104988
103522
101527
99206.5
96831.9
94667.1
92908.2
91685.8
91062.8
105685
105807
106005
106177
106212
105870
105002
103536
101536
99207.5
96830.7
94665.1
92910.9
91692.5
91071.4
105686
105807
106005
106178
106217
105881
105016
103549
101545
99207.4
96824.4
94658.6
92908.6
91694.5
91075.9
105685
105806
106003
106177
106221
105892
105031
103564
101554
99208.2
96817.3
94650.5
92904
91693.9
91077.5
105684
105804
106002
106176
106224
105900
105042
103575
101560
99207.3
96810.3
94642.7
92899.1
91692.1
91077.5
105683
105803
106000
106175
106225
105904
105048
103581
101562
99204.7
96804.4
94636.8
92895.2
91690.3
91077
105682
105803
105999
106175
106225
105906
105050
103583
101562
99202.9
96801.1
94633.7
92893.1
91689.2
91076.5
105492
105658
105952
106274
106494
106387
105651
104104
101813
99100.1
96388.2
94014.2
92158.6
90898.4
90263.4
105495
105662
105956
106278
106498
106389
105652
104106
101818
99108.8
96398.7
94023.9
92166.7
90905.2
90269.5
105500
105668
105963
106286
106505
106392
105653
104109
101827
99125.7
96420.2
94043.7
92182.8
90918.6
90281.6
105509
105677
105974
106297
106514
106392
105647
104100
101831
99145.6
96450.8
94072.8
92206.4
90937.9
90298.9
105518
105688
105988
106311
106526
106386
105639
104094
101822
99169.3
96490.4
94110
92236
90961.9
90320.3
105529
105701
106002
106327
106539
106391
105637
104097
101840
99199.5
96534.3
94151.6
92268.9
90988.3
90344
105538
105711
106015
106341
106548
106402
105645
104108
101858
99234.3
96584.6
94193
92299.8
91014.2
90367.3
105546
105719
106023
106351
106557
106410
105646
104062
101860
99250.7
96609.7
94217.8
92321.8
91035.2
90387.4
105550
105724
106028
106355
106563
106420
105664
104128
101883
99264.5
96618.3
94227
92334.1
91049.1
90402.5
105552
105725
106028
106356
106571
106426
105677
104143
101890
99252.9
96592.1
94214.2
92334.7
91056
90412.1
105552
105723
106025
106352
106570
106437
105697
104160
101894
99248
96575.4
94200.2
92330
91058.1
90417.8
105551
105721
106021
106349
106570
106455
105719
104181
101920
99243.6
96556.7
94185.2
92323.5
91057.9
90420.4
105550
105719
106018
106346
106570
106466
105735
104201
101929
99238.2
96541.6
94172.6
92317.2
91056.5
90421.3
105549
105718
106015
106344
106569
106469
105742
104206
101930
99230.7
96530.4
94163.7
92312.6
91055.1
90421.4
105548
105717
106014
106342
106568
106471
105745
104209
101929
99226.8
96525
94159.4
92310.2
91054.2
90421.3
105144
105419
105941
106625
107305
107763
107416
105691
102708
99093.1
95643.5
92819
90727.2
89356
88679.1
105147
105422
105945
106631
107312
107766
107417
105693
102715
99107.2
95658.6
92830.9
90735.7
89362.4
88684.7
105152
105429
105955
106644
107326
107773
107413
105698
102728
99138.6
95693.5
92856.5
90753
89375.3
88695.8
105160
105440
105971
106664
107345
107772
107387
105687
102707
99172.6
95749.1
92897.7
90779.5
89394.5
88712.1
105171
105453
105990
106689
107367
107751
107315
105608
102654
99233.5
95819.4
92950.9
90814.5
89419.3
88733
105182
105469
106013
106717
107400
107739
107296
105614
102680
99294.2
95909
93014.4
90854.3
89447.8
88757
105192
105482
106030
106741
107405
107760
107298
105618
102699
99341.6
96061.2
93082.3
90896.6
89477.4
88782.2
105200
105491
106041
106755
107421
107781
107329
105658
102706
99361
96087.3
93112.2
90923.1
89502.1
88805.2
105204
105494
106043
106757
107422
107780
107321
105644
102728
99374.7
96101.1
93122
90936.8
89518
88823.3
105206
105494
106041
106747
107435
107779
107340
105662
102736
99357.4
95978.7
93088.9
90931.5
89526.4
88836
105205
105489
106029
106731
107414
107806
107379
105682
102738
99324.8
95919.1
93056.6
90924.1
89530.9
88845.4
105204
105485
106019
106718
107405
107839
107465
105776
102808
99284
95870.9
93027.4
90914.4
89532.4
88851.3
105203
105482
106012
106706
107395
107853
107503
105800
102843
99265.4
95831.4
93003.5
90906.4
89532.5
88854.7
105203
105480
106007
106699
107387
107852
107514
105803
102837
99243
95806.9
92989.1
90901
89532.2
88856.5
105202
105479
106005
106695
107383
107852
107518
105805
102835
99234.1
95797
92982.8
90898.5
89531.9
88857.3
104454
104887
105751
107017
108551
110089
110867
108799
104299
98795.8
94099.7
90655.1
88288.1
86808.1
86098.9
104456
104890
105756
107026
108561
110098
110860
108803
104305
98816.5
94119.9
90667.5
88295.3
86813
86102.9
104459
104896
105769
107047
108590
110118
110862
108830
104358
98889.4
94174.6
90696.5
88310.8
86823.3
86111.2
104465
104906
105790
107085
108628
110150
110693
108836
104258
99017.3
94281
90746.5
88335.5
86839.2
86124.2
104474
104921
105818
107125
108688
110111
109937
108578
105108
99227.5
94425
90825
88370.7
86860.9
86141.8
104485
104940
105860
107211
108791
109330
109837
108565
105184
100530
94611.7
90918.9
88415.4
86886.6
86163.8
104494
104956
105889
107244
108146
109378
109819
108539
105177
100591
95967.9
91004.5
88460.1
86918.3
86189.6
104502
104968
105908
107264
108159
109411
109857
108464
105194
100627
95981.2
91038.9
88501.4
86952
86216
104506
104969
105901
107259
108162
109408
109846
108554
105211
100638
96004.7
91053.1
88509.9
86967.9
86240.5
104509
104966
105889
107244
108829
109380
109862
108589
105220
100631
94703.6
91015.5
88514
86985
86262
104510
104959
105859
107171
108741
110175
109985
108644
105243
99337.4
94550.1
90958.3
88507.8
86998.9
86280
104511
104954
105841
107143
108695
110222
110786
108945
104383
99152.9
94430.6
90906.4
88501.1
87007.3
86293.1
104512
104951
105828
107114
108666
110205
110962
108944
104490
99039
94340.5
90874.3
88496
87012.5
86302.1
104513
104949
105821
107098
108643
110190
110969
108926
104443
98975.4
94296.1
90856.6
88493
87015.6
86307.6
104514
104949
105819
107092
108636
110185
110980
108928
104444
98960.2
94281.2
90849.7
88491.7
87017.1
86310.3
103219
103825
105087
107094
109904
113443
117131
114281
106696
97435.6
91046.1
87118
84646.2
83189.1
82519.8
103218
103825
105090
107103
109920
113461
117128
114289
106718
97472.7
91069
87125.6
84648.6
83190.4
82520.8
103216
103827
105100
107130
109974
113520
117142
114316
106817
97576.1
91131.2
87143.6
84654.3
83193.8
82523.3
103215
103832
105122
107205
110142
113653
114851
114420
108475
98061
91334
87192.7
84663.8
83199.4
82528.3
103214
103838
105154
107275
110229
112181
114830
114364
108592
100434
91552.3
87253.3
84682.6
83208.3
82537.1
103220
103860
105224
107485
109376
112370
114846
114243
108550
100733
93858.5
87397
84695.5
83226.5
82551.7
103221
103864
105240
106913
109460
112476
113934
113596
108952
101795
94105.3
89314.3
84682.3
83235.7
82571.5
103231
103881
105314
106936
109521
112530
113969
113594
109001
101873
94222.4
89413.5
84830.4
83268.6
82606.8
103232
103876
105253
106928
109514
112532
113964
113618
108998
101892
94229.2
89431
84750.7
83303.7
82637.9
103245
103888
105255
107521
109413
112431
114045
113649
109001
100901
94069.3
87532.3
84829.6
83356
82678.8
103252
103878
105198
107325
110288
112293
114871
114320
108596
100705
91721.9
87434.1
84863.6
83386.2
82712.9
103262
103882
105177
107268
110218
113743
114930
114521
108720
98230.9
91527
87399.6
84875.5
83411.5
82739.8
103271
103884
105163
107202
110056
113616
117263
114477
106969
97757.6
91338.4
87366.9
84885.7
83428.5
82759
103277
103888
105158
107181
110008
113561
117249
114430
106882
97665.2
91285.7
87359
84891.9
83438.7
82771.1
103281
103890
105158
107174
109995
113547
117259
114423
106864
97633.1
91267.7
87356.3
84895.1
83443.8
82777
101190
101921
103504
106222
110549
117370
122853
128030
114052
92660.4
85278.4
81665
79556.5
78437
77960.6
101183
101915
103501
106226
110570
117392
122858
128032
114062
92688.1
85288
81657.7
79549.5
78432.4
77956.8
101169
101904
103495
106227
110602
117461
122863
128030
114059
92693.3
85269.3
81620
79532.5
78423.3
77950.2
101153
101896
103506
106300
111015
115295
122974
128112
114076
97285.8
85393
81534.2
79501.2
78411
77942.3
101130
101870
103491
106385
109796
115587
123251
125710
115504
98035.4
88752.8
81463.2
79418.8
78384.7
77935.4
101120
101857
103560
105964
109909
114642
121490
124631
115523
100431
88985
83964.9
79357.5
78358.1
77935.5
101102
101831
103560
106016
110057
114701
120587
124629
116071
101472
90802.2
84090.8
79311.4
78339.3
77945.8
101098
101815
103551
106089
109421
114198
120620
124621
116079
101589
90881.2
84180.4
81329.6
78346.6
77983.4
101116
101846
103576
106068
109425
114698
120637
124644
116107
101629
90922.6
84186.6
79423.4
78436.3
78036.1
101146
101885
103592
105986
110061
114748
120616
124698
116153
101586
90950.9
84217
79546.8
78533.3
78103.4
101167
101911
103537
106441
109862
115713
121466
125698
115624
100421
89118.2
81723.1
79666.6
78619.5
78163.5
101201
101947
103564
106370
111101
115433
123115
128236
114238
97674
85652.1
81811.3
79778
78683.4
78211.2
101224
101963
103561
106305
110693
117568
123001
128162
114233
92917.9
85535.7
81906.8
79826.7
78718.4
78244.7
101243
101979
103573
106309
110668
117505
122975
128174
114244
92925.1
85560.5
81950.6
79853.1
78740.2
78266
101252
101988
103578
106307
110649
117486
122988
128185
114244
92905.1
85555.7
81961.5
79864.4
78750.6
78276.3
98142.7
98853.7
100443
103344
108303
115122
131582
161286
117814
84816.1
74806.7
73567.5
72861.1
72635.5
72575
98127.2
98837.6
100426
103326
108292
115114
131556
161265
117782
84811.3
74780.5
73534.3
72843.4
72624.1
72566.1
98094.6
98799.1
100378
103253
108182
115079
131457
161198
117779
84810.1
74657.3
73447.4
72802.1
72599
72549.2
98050.5
98750.6
100323
103047
107538
115418
131434
161028
117549
84896.4
78057.6
73127.4
72722.5
72561.1
72527.8
97986.3
98662.9
100147
103095
107571
114523
128438
160816
118505
88883.4
77826
75365.9
72512.3
72504.1
72505.2
97926.3
98531.3
100586
103166
107311
114502
127005
155739
123378
90979.5
80191.8
75345
74296.8
72439.5
72498.1
97894.3
98494.8
100586
103172
107352
114073
126899
155600
123479
91159
81623.1
77023.7
74312.4
72483.6
72528.2
97870.7
98472.2
100648
103202
107359
114060
126868
155567
123587
91357.8
81799.6
77168.4
74444.4
72554.3
72559.1
97906.2
98507.9
100612
103230
107392
114079
126896
155606
123589
91432.9
81892.6
77250
74467.3
72612
72650.6
97951.2
98558.6
100626
103181
107403
114122
126979
155718
123544
91341.9
81843.6
77250.7
74546
72676.3
72720.8
98023.5
98703.4
100194
103150
107641
114617
127131
155901
123503
91190.6
80576.8
75694.1
72861.6
72817.1
72802.4
98097.7
98801.9
100383
103120
107516
115452
128574
161029
117820
89354.3
78310.1
73506.8
73090.4
72913.1
72870.4
98149.6
98858.3
100446
103336
108284
115182
131584
161240
117858
85093.3
75005.4
73820.9
73179
72971.2
72917.6
98187
98901.7
100499
103413
108399
115241
131671
161380
117963
85093
75127.8
73904.7
73223.3
73005.9
72947.6
98205.2
98920.6
100519
103434
108413
115245
131723
161437
117993
85089
75159.2
73938.9
73242.9
73021.4
72962.1
94014.3
94448.8
95415.3
97190.8
100114
106790
114251
112060
24787.4
54325
59878.8
63054.8
65026
66255.9
66814.6
93990.3
94422
95384.2
97149.4
100079
106750
114214
111956
24077.8
54290
59810.9
63018.3
65009.9
66241.9
66802.3
93938.7
94358.8
95311
97078.4
99963.8
106643
114102
111825
24485.9
54338.2
59750.9
63009.8
64988.7
66217.4
66782.4
93865.4
94256.7
95182.3
96790.9
101197
106224
113828
111635
24527.1
54507.5
61153.8
63077.2
64978.2
66192.6
66765.3
93762.8
94122.9
94967
97886.6
100961
106606
114548
111362
25231.9
57952.9
62817.4
64470
65068.8
66209.1
66763.6
93649
93988.8
96057
97784.8
101417
106834
114342
110972
25752.7
58591
64063.5
64774.2
66311.8
66315.9
66794.1
93610.5
93943.8
96040.4
97723.6
101666
106793
114243
110819
26704.1
59315
64739.7
66074.1
66440.6
66444.1
66873.1
93594.2
93916.8
96017.1
98334.7
101679
106788
114220
110726
26673.2
60149.7
65398.8
66913.5
66671.3
66569
66943.2
93620.2
93954.6
96023.8
98335.9
101692
106806
114249
110780
26947.7
60441.2
65622.1
67070.1
66730.5
66622.8
67034.3
93671.3
94014
96075.1
97760.7
101700
106848
114332
110928
26653.9
59879.8
65249.2
66456.2
66718.5
66635.5
67085.4
93797
94160.4
95013.3
97879.8
101495
106924
114481
111203
25273
59007.5
64582.3
65139.2
65546.6
66620.2
67146.2
93908.9
94305.1
95242.2
96867.3
101195
106043
113677
111660
24631
56707
61597.7
63596.5
65465.4
66642.7
67197.2
93990.5
94415.2
95377.4
97162.4
100071
106553
114082
111870
24336.4
54658.4
60196.6
63491.8
65466.1
66681.4
67237.9
94046.9
94483.6
95456.2
97239
100191
106842
114301
112050
24464.9
54647.3
60243.9
63481.1
65479.8
66710
67267.7
94073.7
94513.1
95490.1
97283
100228
106910
114392
112166
24385.6
54700.8
60321.3
63514.9
65493.8
66725.4
67283.7
89069.9
88986.2
88790.3
88479.6
88431.9
92401.3
96133.5
109379
6349.66
33150.8
46251.1
53198.3
57712.7
60339.2
61514.9
89041.4
88954.7
88756.3
88441.5
88410.6
92362.3
96098.3
109191
2263.61
33156.1
46184.8
53183.6
57700.4
60322.3
61497.9
88984.2
88890.3
88690.1
88416.5
88366.9
92264
96000.9
109084
3921.48
33256.9
46235.2
53230.3
57697.9
60304.5
61475.3
88907.5
88786.7
88586.7
88457.8
91089.6
92218.4
95792.7
108937
4569.22
33556.3
46476.6
53473.2
57751.9
60312.8
61467.7
88812.9
88674.5
88532.4
90408.7
91131.8
94065.7
96887.2
108893
2289.17
33623.6
47285.5
54326.9
57925.2
60397.7
61499.6
88714.7
88645.3
90069.9
90348
92377.8
94906.9
96845.4
108503
2914.97
34523.4
48210.8
54673
58742.4
60546.1
61577.2
88688.7
88632.7
89979.9
90341.9
93046.6
94916.2
96893.3
108376
4159.73
36936.2
49571.5
55626.2
58981.5
60695.7
61677.4
88674.7
88612.8
89941.5
91314.8
93044.8
94952.1
96961.1
108329
2285.77
41539.1
51413.8
56490
59261.3
60851.8
61777.2
88695.4
88640.3
89945.7
91313.2
93054.2
94960.1
96973.2
108505
2767.88
42767.7
52051.2
56798.4
59411.5
60946.1
61888.7
88732.3
88665.6
89999.1
90386.3
93067
94955.1
96951.9
108658
5081.68
38866.3
50833.4
56339.9
59407.1
60979.1
61953
88840.4
88703.9
88573.2
90386.3
92466.2
95000.8
96962.6
108754
3426.63
35736.7
49319.4
55330
58584.6
60930.2
61983.2
88943.8
88827.4
88638.7
88530
91223.4
92492.7
96138.8
109169
2443.77
34271.7
47566.3
54191.5
58383.6
60876.7
62001.1
89028.9
88939.2
88748.1
88493.2
88472.6
92364.9
96054.6
109168
2423.56
33793.8
46820.9
53841.9
58289.6
60870.7
62027
89091
89009
88821.2
88526.5
88522
92457.2
96208.6
109312
2613.41
33634.6
46720.7
53748.8
58268.8
60884.1
62054.5
89122.5
89043.5
88857.8
88566.6
88543.2
92530.4
96288
109410
2455.35
33700.8
46796.4
53754.5
58273.2
60898.8
62072.5
84005.4
83347
81968
79726.9
79311.2
78022.3
80408.5
2175.91
25359.9
39237.7
47304.5
52865.4
56179.8
57718.2
83974.2
83313.1
81932.5
79693.9
79275.5
77989.2
80382.1
2206.42
25333.4
39176.3
47282.1
52830.1
56144
57683.3
83918.6
83257.7
81869.1
79641.3
79259.8
77958.9
80311.3
2203.55
25222.8
39219.5
47254.9
52771.6
56090.7
57626.3
83856.5
83191.3
81792.1
79753.6
79519.3
77894.1
80166.9
2229.88
25325.6
38070
47377
52737.5
56048.6
57573.8
83802.9
83141.3
81883.2
81781.3
80075.5
80054.4
80960.2
2246.08
23429.7
37729.4
46965.7
52754.1
56060.9
57553.3
83755.4
83221.5
83285.3
82044.2
81485.1
81174.7
81178.9
2279.33
24106.7
37955
47094.6
52684.5
56042.1
57584.6
83745.3
83234.1
83245.1
82160.9
82366.4
81466.2
81669.6
2260.58
28707
39322.9
47365.2
52849.6
56095.1
57638.3
83729.9
83224.2
83228.5
83039.1
82526.2
81665.2
82038.1
149337
43559.5
41781.5
47997.2
53053.9
56241.6
57741.8
83748.3
83237.7
83225.9
83048.6
82522.3
81630.4
81932.7
134433
53389.3
43285.2
48525.4
53322
56412.5
57904.1
83765.3
83233.5
83265.9
82165.8
82373.3
81442.6
81593.7
2315.33
35005.4
41954.6
48571.1
53531.1
56588.6
58053.2
83819.8
83157.3
81906.9
81817.6
81476.5
81219.5
81251.3
2329.07
26930.5
40057.4
48282.4
53598.1
56724.3
58144.8
83881.5
83218.9
81826.3
79809.7
79670.7
78189.8
80167.1
2350.04
25242.9
39391
48275.1
53513.7
56730.5
58212.7
83951.7
83293.6
81911.9
79701.8
79349
78072.9
80435.9
2365.98
25746.9
39917.7
47987.1
53477.4
56760.8
58276.8
84012.6
83354.9
81982.5
79763.6
79387.3
78126.1
80547.5
2377.25
25777.6
39778.2
47939.6
53494.5
56800.1
58332.5
84047.2
83392.2
82020.6
79797.8
79382.2
78153
80588.8
2390.47
25854.1
39822.7
47937.8
53513.5
56829
58365.3
79732.1
78552.7
76066.3
71657.8
69201.9
61230.3
56459.8
2427.76
2177.12
24929.4
37639.1
45697
51259.5
54589.5
56185.8
79690.2
78505.3
76007.9
71585.1
69139.8
61167.2
56434.4
2315.52
2197.22
24937.1
37497
45620.9
51165.7
54512.1
56113.4
79616.9
78428.1
75899.1
71422
69029.8
61022.5
56371.1
2304.07
2205.81
21372.7
37403.2
45426.7
50981.1
54369.2
55976.5
79535.2
78346.7
75737.7
71278.7
68872
60802.5
56272.7
2356.87
2242.76
21418.7
34490.4
45159.1
50712.9
54178.2
55812.9
79475.2
78272.2
75617
74147.1
68581.3
63744.9
58248.7
3030.48
2249.48
19300.1
32905.1
43153.6
50395.2
53996.2
55644.3
79429.5
78232.5
77457.9
73996.8
70589.2
65316.4
58775.5
2338.21
2278.29
18530.4
31676.5
42576
49114.6
53759.1
55525.2
79398.2
78198
77425.5
73906.5
71549.8
65864.5
60535.8
2312.67
2285.99
16177.2
30391
41399.9
48916.7
53667.6
55477.7
79371.5
78181.9
77391.6
75253.7
71650.2
66320.6
62303.9
41002.7
2304.36
11608.1
28177.1
40893.3
48969
53769.1
55563.7
79397.1
78192.4
77400.1
75268.2
71629.4
66171.3
61294.8
24070.9
2381.7
2898.63
29488.6
41566.6
49352.9
54034.3
55787.8
79428.8
78228.2
77457.6
73923.8
71553.6
65767.8
60229.9
3001.36
13776
25027.6
33912.3
43089.7
49905.2
54393.3
56072
79478.2
78271.5
75610.9
74131.3
70621.3
65361.5
58905.9
3170.05
2332.63
23237.1
34703.8
44388
51381.8
54771.3
56331.9
79545.1
78355.9
75744.9
71295
68811.9
60924.1
56573
2947.74
2331.46
21684.7
35796.8
46212
51616.6
54965.8
56548.6
79635.2
78445.5
75917.6
71447.6
68972.7
61074.8
56615.9
2991.09
2371.1
21874.7
38153.7
46257.2
51786.9
55133.8
56720
79714.9
78529.9
76033.5
71617.4
69167.8
61259.5
56713.3
2317.49
2388.31
25269.6
38114.7
46343.3
51912.8
55255.8
56850.8
79760.8
78581.5
76095.8
71692.7
69247.9
61342.3
56673.7
2299.82
2402.69
25328.7
38222.5
46381.5
51982.3
55322.2
56918.6
77068.6
75517.7
72206.7
66292.3
55873.9
45493.6
19596.5
2300.04
2176.85
28281.2
40178.6
47627.8
52663.8
55666.3
57105.2
77003.9
75442.2
72101
66154.8
55690.4
45292.4
19578
2290.42
2196.87
28124.5
39907.3
47441.2
52490.6
55532.4
56988.6
76887
75310.5
71915.5
65914.1
55322.2
44744.5
19509.3
2283.91
2229.47
22853.7
39431.2
47033.8
52145.9
55270.6
56763.5
76741.3
75159.4
71659.6
65612.5
59343.1
44135.7
19269.3
2282.25
2236.24
22419.1
34887.1
46310.3
51606.6
54886.2
56451
76610.2
75013.9
71471.4
67901.2
59125.1
47825.4
25604.3
2281.9
2240.41
18510.9
31994
42770.1
50940.2
54461.8
56105.2
76506.7
74874.7
72964.9
67745.4
61225.9
49760.8
26572.8
2286.75
2270.45
16132.1
29057.1
41443.5
48450.2
54039.2
55808.3
76424.4
74767.1
72926.1
67578.8
62196
50169.8
27906
2260
2269.52
7330.34
25314.2
38813.7
47852.2
53799.4
55651.4
76380.3
74724.3
72875.6
68934.6
62173.3
50580.4
31012.4
2571.49
2313.46
2369.88
21385.8
37299.2
47738.1
53848.7
55710.3
76416.2
74751.5
72884.3
68937.2
62154
50484.5
29384.7
2314.58
2271.15
2146.89
23142.1
38069.6
48222.7
54199.6
55989.4
76493.2
74850.3
72960.7
67604.4
62180.2
50168.6
28763.2
2290.96
2333.98
17536.2
29303
40812.4
49092.3
54734
56407.4
76596.6
74989.9
71420.4
67871.9
61222
49819.7
26815.5
2273.22
5148.61
21409.1
32458.5
43734.5
51998.5
55315
56862.1
76734.6
75144
71622.5
65541.2
59231.1
44166.6
21033
2301.06
2346.28
21415.8
35976.2
47470.4
52602.2
55758.2
57264.4
76890.7
75305.5
71895.2
65867.6
55246.2
44538.2
19322.8
2295.24
2381.44
23050.4
40220.7
47941
53036.1
56119.4
57586.6
77016.4
75448
72093.3
66126.5
55644.3
45127.8
19479
2291.05
2399.98
28367.2
40553.3
48221.8
53315.2
56357.2
57806.6
77086.6
75529.7
72207.4
66274.7
55844.6
45469.8
19680
2273.06
2416.16
28704.5
40812.7
48372.9
53462
56478.5
57918.6
76620.2
75082.9
71778.6
66050
55895
43975.6
8429.99
2269.18
15708.1
37727.8
46832.6
52788.2
56742.7
59063.1
60180.9
76527.2
74973.5
71619.3
65798.7
55708.5
43076.8
9179.46
2277.86
17310.6
37395.7
46457
52480.1
56488.8
58878
60024.6
76359.1
74778.2
71339.2
65380.1
55637.6
41644.4
9498.34
2274.56
8519.07
29319.4
45665.2
51836.5
55995.3
58521.2
59726.5
76144.4
74542.4
71003.3
64997.3
56910.6
40334.4
9540.85
2294.87
5508.11
27739.8
39739
50733.1
55218
57991
59309
75936.7
74311.3
70759.8
65902.3
56227.7
42108.2
18918.5
2280.94
4596.3
21290.8
35301.6
46041.4
54291.9
57383.6
58843.2
75760.8
74115.8
71326.2
65489.3
57177.5
42873.5
19439.1
2282.03
3491.93
16177.8
30581.8
44044.3
50951.3
56864.4
58435.4
75625.2
73937.3
71167
65151.1
57479.7
42494.3
21280.2
2303.83
2245.92
2359.8
25661.6
40415.5
50063
56524.5
58211.9
75565.6
73861.4
71075.8
65971.8
57206.9
42196.1
17879.7
2276.48
2318.8
2272.13
22376
38405.6
49840.2
56541.3
58252.8
75609
73910.5
71093.8
65965.9
57187.4
42254.7
18928.8
2303.34
2289.76
2268.09
24489.7
39255
50386
56942
58564.7
75736.7
74070.7
71205.5
65197.3
57408.3
42441.6
19979
2301.99
2160.04
15475
30021.3
42591.4
51454.1
57589.7
59066.3
75910.3
74262.9
70649.9
65627
57087.9
42763.4
19479.6
2259.58
6479.98
21497.5
34162.6
46759.8
55407.9
58292.4
59649.9
76127.4
74503.3
70910.1
64796.5
56340
40074.5
18063
2273.88
2407.47
24807.3
40294.9
51986.4
56292.2
58929.9
60186.1
76356.8
74756.3
71272.9
65239.9
55342.4
40699.5
9350.98
2280.77
4947.87
28648.3
46538.9
52834.9
56964.8
59445.2
60621.7
76538.1
74969.2
71580.5
65704.2
55479.2
43125.2
7536.71
2228.87
13763.3
37413.9
47069.7
53322.8
57394.3
59781.6
60919
76639.2
75088.7
71756.4
65978.7
55739.7
43906.1
8080.7
2231.51
16023.6
38259.8
47565.3
53621.6
57627.8
59956.4
61072.5
78538.8
77499.7
75314.2
71986.3
65069.9
56594.6
37923.3
2255.68
44054.3
54282.6
57871.4
61034.5
63072.7
64306.6
64938.1
78420.9
77354.5
75097.4
71543.6
64436.9
55145
31890
2255.84
42872.3
53351.6
57264.3
60595.2
62758.4
64091.8
64762.1
78208.5
77096.3
74728.7
70807.8
65268.3
51603.3
24427.8
3285.07
22453.9
43549.2
56488.2
59766
62191.5
63695.5
64436.1
77934.8
76761
74211.7
70062.2
62963.6
49666
22757.1
2308.53
12039.8
40549.5
49500.6
58456.6
61282.5
63115.4
63985
77661.2
76411.8
73748.2
69152.3
61249.7
48053.7
23801.2
2327.97
10866.1
30234.3
43721.7
53057.3
60293.4
62444.1
63490.4
77421
76143.3
73250
68152
60132.4
46120.7
22027.4
2242.63
2272.32
21287.9
37328.1
50703.6
56430
61951.8
63073.5
77239
75894.9
72820.8
67483.6
59271.5
44250.6
18675.2
2290.23
2269.57
7940.53
31699.1
46453.2
55467.9
61615.7
62846.4
77166.2
75791.6
72642.8
67454.6
58603.7
43320.6
18251.4
2307.84
2652.18
2271.25
28722
44162.2
55232.7
61635.2
62887.1
77222.6
75862.3
72675.7
67439.4
58544.9
43261.2
18838.8
2265.83
2249.99
7135.8
30902.7
45019.5
55767.3
62037.3
63204.4
77398.1
76089.7
72892.3
67583
59061.3
43967.8
19024.1
2312.98
2342.24
19030
36134.2
48653.6
56889.6
62693.7
63723.3
77639
76355.7
73597.6
68340.4
59936.8
45551.1
20992.4
2342.47
8219.81
27457.9
41159.9
53627.2
61460.9
63395
64334
77928
76720.2
74082.8
69737.4
61466.9
47624.5
22617.3
2312.27
8811.04
35172
49819.2
59845.5
62441.6
64115.3
64917
78223.2
77083.8
74647.5
70587.6
64789.9
49912.2
21262.2
2404.67
21775.4
43115
57674.5
60928.4
63257
64695.8
65398.5
78454.9
77368.9
75065.5
71428.8
64084.3
54795.1
30222.5
2394.3
41906.7
54301
58079
61575.7
63765.9
65076.6
65729.7
78583.8
77527.8
75304.9
71896.1
64792.4
56295.6
35743.7
2534.8
44123.6
55083.2
58756.1
62000.8
64060.1
65283.4
65905.2
82243.3
82018.6
81616.1
82277.1
84164.2
90758.6
137845
154849
100797
78869.8
73059
71404.4
70777
70674.3
70719.2
82113
81841.6
81359.3
81686.5
83054
89354.3
135740
139568
97227.9
77190
72133.5
70863.5
70451.3
70463.9
70552.3
81877.6
81529
80942.5
80382.5
81638.3
77990.2
101947
99211.2
89480
70040.5
70311.8
69825.3
69881.4
70085.1
70250.1
81567.7
81114.8
80214.6
79158.6
75687.5
73727.3
81975.1
66765.7
65096.1
64660.8
64467.5
68392.3
69008.1
69562.4
69843.2
81256.5
80678.7
79557.6
76340.2
73183.1
66370.1
52242.8
7339.44
33310.6
50454.5
58102.7
63397.9
68130.8
68966.8
69417.3
80988.3
80351
77875.7
75018.7
69716.5
60495.2
38849.8
2282.46
2350.48
37053.9
50989.9
61329.2
64423.5
68578.9
69089.7
80789.2
80078.5
77304.9
74153.1
67582.9
56334.3
30980.6
2273.41
2298.79
20040.5
45037.3
57033.7
63631.9
68350.6
68928.1
80716.7
79973.7
77077.3
73168.9
66454.1
53978
28266.7
2291.3
7825.91
9060.13
41920.6
54714.9
63510.1
68402.3
68987.7
80786
80059.5
77122.1
73158.7
66349.7
53757.9
28088.2
2262.93
4868.93
18046.5
43811.9
55452.2
63988.9
68742.7
69276.2
80991.9
80325.6
77421.2
74306.5
67248.6
55549.1
30101.7
2318.47
2282.13
31443.4
48995.7
59022.9
64954.3
69320.8
69743.3
81272.6
80662.7
79454.8
75222.7
69464.9
59153.7
35738.9
2273.82
17285.1
43917.5
54669.3
64089.9
69293
69925
70278.1
81608.8
81123.8
80139.9
78900.8
73503.8
69097.6
50322.6
2374.49
41072.3
57650.2
64754.9
69865.1
70228.9
70619
70824
81947.7
81576.8
80934.4
80244.8
81322.2
74290.6
88444.1
97194
84924.7
69097.8
71749.5
71151.9
71050.6
71158.5
71271.1
82208.3
81922.6
81414.4
81700.8
82815.5
89442.6
135443
135600
98022.7
78643
73234.3
72049.2
71570.4
71526.2
71584.5
82350.5
82111.7
81689.9
82305.8
83915
91079.7
137117
153634
101295
79976.6
74105.3
72525.7
71871
71730.8
71754.1
86557.4
87042.3
88038.7
90848
97651.3
101600
124845
132033
106438
93737.9
85662.1
80826.8
78292.8
77132.8
76674.4
86448.4
86883.3
87839.9
90540.9
96973.4
101209
126175
134850
105853
92485.6
84958.3
80393.2
78029.3
76966.6
76546.8
86243.6
86572.3
87482
89419.5
94452.6
99093.2
113842
135734
105153
91341.9
82910.5
79422.3
77551.2
76663.6
76319.7
85959.4
86177.6
86750.3
88242.6
89248.2
96407.6
111535
136364
104169
87331
79990.1
78158
76876.5
76279.9
76024.5
85674.5
85763.1
86043
85152.9
86736.7
89850.5
103449
144254
96132.9
79995.3
75709.6
75056.7
76256.5
75878.3
75740.6
85447.6
85400.8
84010.3
83877.1
82996.8
83540.5
92820.5
163075
75381.9
71231.7
71090
73913.5
73734.1
75627.4
75561
85285.8
85168.7
83538.3
83058.3
80210.5
78570.8
73734.4
6893.74
2251.24
58620.5
67574.8
71111.7
73352.5
75545.1
75511.4
85238.2
85101.4
83351.7
81519.2
79081
75044.4
60747.4
10369.4
2291.01
48430.4
65493.2
69471.6
73385.5
75656.5
75611
85313.5
85190.4
83412.2
81538.9
79004.7
74752.4
59443.8
2305.01
2153.62
44875.3
66393.5
70028
73752.5
75930.3
75858.4
85510
85451.8
83704.2
83281.5
79953.4
77610.3
69434.3
2394.72
2620.99
61259.9
69774.5
72600.5
74411.5
76337.8
76202.5
85771.7
85855.9
86122.1
84299.6
82951.7
82316.9
86259
120374
76831.6
74782.6
73771.7
75943.9
77408.9
76834.1
76608.1
86093.4
86307.5
86871.7
88355.4
88056.6
94216.4
106313
160096
105794
85926.6
80802.1
79698
78134.8
77356.3
77022.3
86412.9
86744
87670.2
89639.7
94801.1
97983.9
113981
137860
107933
92380.9
84636.7
80883.2
78793.7
77782.8
77375.5
86644.4
87083.8
88056.6
90882.8
97171.6
101972
127225
137749
108368
94202.9
86338.9
81742.8
79231.8
78085.9
77623.1
86763.3
87248.5
88252.8
91191.1
97728.3
102182
125372
131872
108180
95134.1
86925.7
82097.9
79468
78247.4
77756
90250
90914.8
92136.3
93641.6
98750.5
97339.8
96932.7
98520.1
94716.3
94548.9
90105.6
86412.6
83998.6
82603.1
81954.1
90209.6
90859.2
92106.8
93888.1
99079
98291.8
99683.4
102342
96193.3
94741.1
90273.3
86369.9
83918
82537.1
81897.5
90117
90697.9
92013.2
94000.9
97872.4
100076
103565
110352
100402
94829
89749.9
86101.8
83734.1
82398.3
81795.9
89963.2
90504.1
91699.2
93996.1
95762.7
101093
109128
117354
107417
95976.9
89540
85851.1
83494.4
82241.1
81669.4
89791.3
90251.6
91366.4
92004
95390.2
100573
111290
124961
114478
98219.7
89161.6
84805.6
83266.4
82068
81558.9
89653.1
89977.6
89952.8
91414
93513.4
99391.9
114700
137439
126463
100840
89171.2
84794.7
82306.2
81951.4
81522.2
89576.7
89858.3
89758.6
91051.6
92260.9
98364
113891
151198
145162
105160
90059.8
84411.8
82365.6
82002.7
81585
89577.3
89851.8
89682.4
90063
91817.5
97297.1
110768
156717
153409
108792
91394.3
84553.3
82547.3
82170.7
81732.3
89645.5
89932.8
89761.1
90121.6
91891.9
97472.5
111653
158546
145192
115532
92522.9
85052.4
82853.2
82397.4
81933.2
89790.8
90126.9
89961.5
91347
92450.3
98739.5
115168
167080
149274
107115
91930.8
85620.7
83194.5
82666.9
82163.6
89992.6
90487.9
91678.6
92007.5
94034.3
100094
116476
151970
128863
102945
91283.5
86369.3
84501.7
83036.2
82429.5
90214.1
90790.7
92078.9
94604.1
96274.1
103285
114759
133443
118942
100720
91505.1
87443.9
84783.9
83329.8
82670.5
90406.5
91024.1
92432.9
94621.2
98882.9
101743
109297
119212
106503
97782.5
91500.9
87625.1
85009.5
83533.7
82860.7
90521.2
91202.6
92495.7
94545.5
99784.1
99473.6
101390
104239
98511.8
96463.6
91804.2
87789.2
85153.4
83677.6
82986.7
90567.7
91258.5
92499
94272.4
99323
98175.3
98403.5
100278
96859.8
96013.9
91528.5
87765.7
85208.9
83740.7
83050.1
92812.5
93240.8
94176.9
94200.5
96596.3
95978
94080.6
96084.9
93091.5
93665.4
91054.2
89244.3
87731.5
86664.9
86110.4
92857.7
93324.4
94290.1
94690.4
97405.6
96991
95699.2
97035.6
94390.5
94512.1
91712.7
89522.6
87849.6
86718.4
86138.1
92919.1
93395.6
94459.9
95562.4