/*--------------------------------*- C++ -*----------------------------------*\
| =========                 |                                                 |
| \\      /  F ield         | OpenFOAM: The Open Source CFD Toolbox           |
|  \\    /   O peration     | Version:  v2012                                 |
|   \\  /    A nd           | Website:  www.openfoam.com                      |
|    \\/     M anipulation  |                                                 |
\*---------------------------------------------------------------------------*/
FoamFile
{
    version     2.0;
    format      ascii;
    class       volScalarField;
    location    "0.045";
    object      p;
}
// * * * * * * * * * * * * * * * * * * * * * * * * * * * * * * * * * * * * * //

dimensions      [1 -1 -2 0 0 0 0];


internalField   nonuniform List<scalar> 
449343
(
103184
103310
103518
103711
103783
103497
102679
101252
99269.8
96944.4
94568.8
92419.8
90691.1
89494
88884.4
103164
103290
103498
103691
103761
103473
102654
101227
99246.3
96922.9
94548.8
92399.9
90670.5
89472.7
88862.6
103144
103270
103477
103669
103737
103445
102623
101195
99218.1
96899.1
94528.5
92380.2
90649.5
89450.2
88839.3
103123
103249
103457
103647
103711
103412
102586
101157
99185
96872.7
94508.5
92361.6
90628.9
89427.3
88815.1
103103
103229
103436
103624
103683
103375
102545
101115
99147.6
96844.9
94489.2
92344.4
90609.2
89404.9
88791
103083
103209
103416
103602
103655
103341
102506
101077
99115.7
96821.9
94473.9
92330.2
90591.9
89383.5
88767.7
103063
103189
103395
103581
103629
103312
102475
101046
99088.3
96802
94456.5
92315.6
90574.4
89363.5
88746.1
103042
103168
103374
103559
103605
103286
102445
101014
99059.3
96780.3
94438
92297.1
90554.6
89342.7
88724.9
103021
103147
103353
103538
103585
103267
102429
101000
99044
96759.1
94414.3
92273.8
90532.6
89321.8
88704.7
103000
103126
103331
103517
103567
103253
102418
100990
99028.8
96736
94388.2
92245.6
90508.6
89301.3
88685.8
102979
103104
103310
103496
103553
103244
102413
100984
99018.6
96717.4
94363.6
92220
90486.1
89282.1
88668.5
102959
103084
103289
103477
103538
103238
102412
100984
99012.7
96703.4
94341.7
92196.7
90465.3
89264.5
88652.6
102939
103064
103269
103459
103524
103230
102407
100981
99006
96689.9
94321.9
92175.5
90446.2
89247.8
88637.3
102919
103044
103250
103440
103508
103218
102399
100973
98994.9
96674.2
94302.6
92155.8
90427.8
89230.9
88621.3
102900
103025
103231
103421
103490
103203
102384
100959
98979.2
96656.4
94283.4
92136.4
90409.1
89213
88603.8
103045
103218
103526
103873
104120
104056
103373
101883
99646.5
96980.7
94305.2
91956.3
90116.7
88865.7
88235
103024
103198
103506
103853
104099
104033
103347
101857
99622.7
96960.2
94286.2
91936.5
90095.5
88843.5
88212.3
103004
103178
103486
103832
104077
104004
103314
101824
99595.1
96939.5
94269.3
91917.9
90073.7
88819.5
88187.2
102983
103158
103467
103812
104052
103968
103270
101777
99560.7
96915.7
94254.7
91901.8
90052.6
88794.6
88160.7
102963
103138
103448
103791
104027
103922
103218
101721
99496
96888.8
94244.5
91889.5
90033.1
88770.3
88134.2
102943
103119
103430
103773
104003
103887
103172
101678
99469.6
96870.6
94238.5
91881.2
90016.2
88747.3
88108.8
102923
103099
103411
103753
103977
103863
103145
101653
99445.6
96860.4
94241.5
91874.9
89999.8
88726.1
88085.4
102902
103079
103390
103733
103953
103835
103106
101566
99406.8
96836.4
94225.6
91858
89979.8
88705
88063.5
102881
103058
103369
103710
103932
103816
103095
101601
99398.9
96816.6
94199.3
91832.9
89957.6
88684.3
88043.7
102860
103035
103345
103687
103915
103798
103083
101592
99382.4
96784.1
94151.5
91796
89932.4
88664.3
88026.2
102839
103013
103321
103663
103895
103789
103085
101591
99370.1
96761.6
94118.5
91764.4
89909.1
88646.9
88011.2
102819
102992
103299
103641
103878
103791
103092
101599
99382.4
96744.9
94087.3
91736.4
89888.5
88631.4
87998
102799
102972
103278
103621
103862
103787
103096
101608
99382
96729.9
94062.4
91713.1
89870.2
88616.9
87985.1
102780
102952
103258
103602
103844
103775
103090
101601
99371.1
96711.4
94040.2
91692.6
89853
88601.9
87971
102761
102933
103239
103583
103826
103760
103077
101588
99355.7
96693
94020.4
91673.4
89835.1
88584.9
87954.6
102688
102969
103504
104212
104926
105423
105147
103494
100580
97021.4
93609.6
90806.3
88725.5
87359.5
86684.7
102667
102948
103484
104193
104907
105399
105118
103465
100556
97003
93591.8
90785.8
88702.2
87334.8
86659.5
102645
102928
103465
104177
104890
105374
105077
103428
100527
96990.7
93582.3
90767.7
88677
87306.2
86629.7
102623
102908
103448
104162
104874
105336
105009
103382
100466
96973.4
93584.5
90756.3
88652.2
87275.5
86597
102602
102889
103434
104150
104854
105265
104883
103232
100336
96971.1
93595.2
90751.2
88630.3
87244.9
86563.6
102582
102872
103422
104140
104845
105211
104816
103190
100316
96975.2
93626.2
90755.7
88611.8
87216.6
86531.9
102562
102854
103406
104131
104813
105193
104774
103150
100287
96970.1
93721.2
90767
88598.6
87192.1
86503.9
102542
102834
103386
104113
104795
105176
104762
103143
100249
96943.8
93701.3
90749.6
88577.2
87169.4
86480.2
102521
102812
103363
104087
104767
105145
104724
103099
100239
96922.6
93677
90722.1
88554.1
87148.7
86461.3
102500
102789
103337
104052
104755
105118
104719
103094
100224
96884.6
93536.7
90668.5
88526.1
87132.2
86448.1
102479
102765
103306
104019
104719
105127
104744
103101
100214
96841.4
93466.3
90624.1
88504.7
87120.4
86439.8
102460
102743
103280
103990
104697
105147
104819
103188
100279
96799.2
93415.4
90589.6
88487
87111.6
86433.8
102442
102723
103257
103964
104671
105148
104852
103210
100311
96779.5
93374.8
90562.5
88473.2
87103.6
86427.7
102425
102704
103236
103941
104650
105136
104855
103206
100301
96753.3
93346.1
90542.2
88460
87093.6
86418.8
102406
102686
103217
103921
104631
105121
104847
103196
100287
96734
93325.8
90524.4
88444.7
87079.5
86405.1
101983
102422
103297
104587
106162
107723
108611
106646
102242
96814.9
92154.6
88719.5
86352.4
84869.9
84158.7
101961
102400
103277
104569
106144
107701
108568
106614
102212
96795.6
92135.2
88694.4
86324
84840.4
84129.1
101937
102378
103259
104558
106139
107688
108540
106591
102213
96813.1
92134.4
88670.5
86289.3
84802.9
84090.9
101911
102356
103244
104556
106137
107682
108303
106545
102056
96873.5
92173.3
88655.6
86252.1
84759.8
84046.6
101887
102336
103236
104557
106148
107584
107483
106195
102800
96998.9
92240.7
88660.3
86216.6
84714.7
83999.8
101864
102319
103238
104596
106196
106764
107326
106129
102824
98228.1
92353.5
88678.1
86187.8
84670.7
83954.9
101842
102303
103232
104598
105527
106775
107259
106053
102764
98230.6
93645.9
88690.9
86163.5
84636.6
83917.3
101821
102285
103218
104583
105503
106769
107251
105930
102726
98209.3
93602
88667.1
86144.6
84612.9
83889.1
101802
102261
103187
104551
105476
106732
107204
105975
102703
98177.9
93580.8
88637.6
86111.6
84590.1
83873.2
101784
102238
103154
104509
106101
106670
107192
105986
102685
98147.2
92260
88585.9
86099.8
84585
83870.1
101766
102212
103107
104421
106007
107431
107306
106028
102700
96859.2
92105.6
88528.3
86088.4
84589
83875.5
101752
102193
103077
104381
105953
107479
108103
106343
101875
96701.2
92003.9
88487.5
86085.9
84595.8
83883.8
101738
102176
103051
104342
105914
107447
108287
106363
101994
96601.3
91927.7
88465.8
86086.3
84601.4
83890.3
101723
102160
103031
104315
105883
107428
108298
106348
101953
96547.6
91892.6
88453.3
86083.9
84601.5
83890.7
101707
102142
103012
104295
105863
107413
108305
106345
101950
96531.8
91875.7
88441.3
86074.7
84592.8
83882.1
100731
101342
102611
104635
107481
111045
114883
112155
104765
95624.1
89243.7
85295.4
82802.2
81328.6
80650.7
100705
101316
102587
104615
107465
111027
114834
112122
104733
95600.7
89214.3
85257.6
82763.4
81291.5
80614.5
100674
101288
102564
104606
107480
111044
114804
112093
104765
95626.3
89203.3
85209.8
82709
81239.2
80563.7
100640
101258
102546
104633
107593
111159
112418
112120
106297
96018.3
89318.5
85176.4
82642.2
81174.2
80501.3
100606
101228
102538
104658
107634
109623
112333
111987
106345
98284.3
89434.7
85140.7
82570.4
81100.8
80432.5
100574
101209
102560
104818
106729
109753
112285
111795
106230
98491
91646.6
85178.6
82482.6
81030.2
80364.9
100545
101180
102538
104217
106772
109801
111316
111073
106540
99466.2
91804.6
87017.4
82378.7
80956.9
80307.1
100525
101166
102576
104195
106784
109803
111296
111010
106524
99474.5
91839.9
87036.2
82447.7
80921.3
80276.5
100505
101138
102487
104158
106744
109765
111241
110985
106466
99434.7
91788.1
86995.7
82307.3
80905.2
80260.6
100498
101132
102479
104728
106627
109643
111287
110984
106438
98421.4
91609.2
85071.6
82394.8
80942.6
80279.1
100489
101106
102408
104517
107480
109493
112102
111657
106060
98245.1
89290.9
84999.8
82437.6
80973.3
80308
100487
101101
102382
104456
107399
110942
112166
111870
106201
95858.1
89152
85006.8
82475.9
81011.5
80340.5
100482
101092
102359
104388
107245
110792
114537
111860
104537
95417.7
88999.7
85006.9
82508.5
81041
80366.9
100475
101083
102345
104361
107197
110744
114540
111838
104477
95364.5
88980.4
85022
82528.4
81057.6
80381.4
100463
101069
102329
104342
107175
110724
114553
111843
104478
95356.2
88976.1
85024.5
82530.9
81057.8
80380.2
98682
99416.3
101004
103731
108089
114959
120553
125956
112364
91183.8
83695.3
79998.9
77829
76670.5
76175.2
98650.1
99384.3
100972
103703
108072
114940
120515
125899
112284
91095.6
83627.8
79932.8
77773.5
76622.8
76130.8
98607.6
99342.3
100931
103664
108057
114951
120457
125812
112160
90964.9
83509.2
79811.6
77684.4
76549.5
76063.9
98556.9
99295
100895
103679
108378
112712
120465
125811
112046
95376.7
83514.5
79621.4
77559.3
76453.7
75977.9
98499.7
99232.8
100834
103698
107120
112924
120658
123285
113323
96012.9
86738.4
79418.5
77359.8
76326.9
75878.1
98451.2
99176.1
100848
103253
107171
111920
118809
122118
113270
98305
86835.1
81788.4
77149.8
76185.5
75776.4
98402.8
99113.4
100808
103255
107256
111902
117825
122021
113727
99254.5
88547.6
81777.5
76974.4
76058.8
75689.9
98373.3
99071.4
100790
103288
106591
111355
117777
121929
113657
99265.9
88498.3
81737.5
78908.4
75985.8
75649.7
98366.2
99075.8
100767
103235
106556
111790
117732
121876
113596
99202.8
88438.3
81655.3
76902.3
76006.4
75642.5
98380.9
99102.4
100766
103135
107146
111813
117680
121890
113593
99114.3
88431.4
81673.3
77046.3
76089.8
75688.7
98391.6
99117.6
100707
103557
106941
112767
118527
122900
113108
98006.3
86664
79260.4
77219.1
76199.1
75754.9
98414.9
99150.4
100740
103501
108168
112500
120216
125530
111844
95374.2
83350.8
79452.2
77394.9
76294.5
75821.3
98428.2
99155.8
100733
103446
107811
114671
120156
125502
111906
90786.4
83315.9
79614.4
77489
76357.3
75873.6
98434.2
99163.1
100739
103451
107795
114633
120167
125560
111992
90886.4
83407.9
79707
77547.3
76397.5
75906.4
98428
99156.6
100731
103439
107773
114615
120196
125614
112075
90955.8
83446.3
79741.5
77568.9
76409.8
75914.6
95616.9
96327.4
97916.1
100817
105777
112584
129034
159032
116941
83904.1
73521.9
72089
71263.7
70970
70878.3
95576.9
96285
97869.6
100765
105726
112541
128967
158947
116611
83656.3
73374.9
71979.1
71189.6
70911.8
70826.4
95516.4
96216.6
97787.7
100648
105563
112449
128795
158787
116327
83407.5
73125.1
71792
71066
70816
70744.6
95439.2
96129.8
97681.8
100383
104875
112714
128694
158505
115906
83297.8
76358.3
71349.2
70878.6
70683.9
70636.6
95340.4
96002
97452.9
100386
104821
111737
125616
158167
116719
87109.9
75957.9
73407.3
70526.7
70508
70506.6
95244.7
95829.7
97866.6
100389
104497
111601
124050
152929
121459
89100.6
78157.9
73186.4
72105.1
70303.4
70376.7
95181.7
95754.7
97825
100337
104456
111090
123792
152579
121584
89237.3
79407.5
74658.7
71948.8
70211.2
70286.7
95134.3
95706.6
97851.7
100324
104405
110987
123621
152344
121754
89258.8
79325
74558.5
71894.7
70176.9
70223.8
95150.3
95721.7
97792.8
100324
104398
110949
123555
152225
121540
88987.5
79163.5
74480.3
71822.6
70157.4
70240.4
95185.7
95767.3
97795.9
100256
104392
110973
123612
152277
121386
88798.8
79080.9
74491.5
71908.8
70192
70286.5
95247.3
95902.4
97338
100239
104625
111469
123801
152550
121361
88878.4
78022.4
73095.6
70380.5
70390.9
70389.5
95314.8
95999.2
97541.9
100211
104535
112327
125347
157823
116095
87351.1
76066
71188.9
70719.1
70531.8
70487.9
95357.6
96049.8
97601.3
100442
105318
112123
128373
158196
116053
83249.3
72953.5
71607.2
70879.9
70633.8
70564.8
95383.4
96084.8
97656
100523
105445
112203
128519
158428
116199
83386.1
73174.4
71767.7
70976.9
70699.7
70615
95385.9
96088.9
97660.8
100536
105456
112210
128592
158544
116530
83621.7
73303.9
71852.8
71020.4
70724.6
70632.5
91470.6
91901.5
92862.7
94630.9
97545
104190
111511
108931
29846.2
54448.7
58941.7
61764
63549
64680.8
65197.2
91423.9
91850.6
92803.7
94555.8
97471.5
104112
111441
108805
24512.3
53787.9
58671.3
61623.8
63469.7
64619.2
65142.8
91347.9
91759
92695.5
94445.4
97300.6
103939
111267
108622
24013
53391
58453.9
61502
63361.9
64524.3
65059.6
91246.8
91625.6
92528.1
94091.8
98481.8
103429
110891
108314
23732
53282.2
59664.2
61426.9
63235.8
64402.5
64955.6
91115.6
91452.1
92253.8
95138.1
98143.9
103697
111492
107826
24132.8
56501.5
61102.1
62566.1
63164.6
64286.5
64839.1
90970.2
91287.2
93308
94957
98518.9
103810
111078
107155
24642.8
57068.4
62089.4
62609.2
64114.2
64224.3
64730.8
90911.1
91215.4
93241
94828.2
98691.6
103618
110744
106510
28200.2
57914.3
62332.3
63497
63996.7
64183.6
64668.7
90872.4
91164.3
93182.1
95422.4
98628.7
103494
110520
106016
27619
58306.3
62243
63871.1
63974.7
64160.7
64612.8
90887.1
91189
93174
95397.9
98605
103455
110447
105912
26694.9
56725.3
61720
63700.7
63892.6
64127.5
64621.7
90929.3
91241.8
93219.3
94799.6
98617.6
103509
110539
106033
25457.4
55927.7
61442.9
63180.5
63877.9
64126
64644.2
91045.7
91379.4
92173.8
94932.5
98433
103645
110794
106522
26658.6
56433.6
61534.6
62301.8
63014
64162.8
64727.5
91151.3
91522.3
92404.9
93950.8
98164.6
102813
110128
107264
26425.4
55158.5
59398.4
61269.1
63077.5
64256.2
64816.6
91221.7
91625.6
92544.7
94259.1
97077.3
103391
110626
107746
24240.1
53282.5
58319.6
61335.2
63190.8
64356.5
64894.4
91265
91684
92620.1
94344.1
97215.9
103725
110913
108073
24046.8
53468.8
58493.5
61431.2
63275.5
64425.2
64949.3
91275.2
91698
92640.4
94377
97244.8
103810
111024
108204
24955.8
54003.4
58757.3
61552.9
63328.7
64456.4
64971.6
86507.6
86418.5
86217.3
85913
85892.4
89888.7
93579
106732
14862.1
33387.6
45384.5
51977.1
56291.9
58815.8
59948.1
86460.6
86366.6
86159.4
85847.2
85838.6
89810.5
93504.9
106513
2458.77
32835
45123.7
51860.9
56222.4
58757.9
59896
86386.6
86280.6
86060.9
85773.2
85734.6
89643.5
93333.6
106349
2408.39
32607.3
45044.5
51808.1
56150.2
58685
59823.7
86293.6
86155.7
85922.4
85761.8
88386.5
89498.2
93006.3
106107
2454.24
32676.4
45163.3
51920.7
56100.2
58611.2
59744.9
86184.9
86022.1
85838.1
87665.8
88320.8
91172.6
93886
105910
2336.93
32440.3
45712.4
52532.7
56117.2
58572.1
59673.2
86076.1
85981.7
87319
87520.8
89426.9
91814.2
93600
105311
2401.74
33037.2
46077.8
52460.6
56615.4
58525.3
59606.7
86039.6
85950.7
87183.6
87446
89969.5
91624.5
93351.6
104946
3918.37
34238
46142.2
52707.3
56507.6
58466.4
59549.3
86014.6
85919.1
87116.7
88350.9
89886.7
91512
93182.4
104421
6817.92
34796.1
45715.5
52720.7
56387.9
58423
59492
86029.7
85940.2
87115.7
88336.1
89871.6
91487.1
93134.6
104161
2768
29754.7
44785.5
52499.5
56337.2
58402.1
59499.2
86055.9
85956.2
87177.6
87461.3
89912.2
91555.4
93228.6
104632
2536.63
29125.1
44688.8
52336.8
56393.1
58422.4
59521.1
86150.7
85986.2
85789.1
87476.5
89393.3
91714.9
93426.7
105014
2527.95
31743.1
45324.6
52177.1
55964.4
58450.2
59568.6
86240.6
86099.3
85857.7
85668
88263.9
89405.6
92815.5
105624
2293.38
32464.1
45168.6
51770.5
55959.7
58479.1
59619.8
86307.7
86197.2
85966.8
85658.4
85578.2
89338.9
92830.1
105770
3659.9
32607.1
44954.1
51670.5
56002.6
58537.3
59678
86351.5
86251.5
86029.3
85688.2
85641.1
89466.3
93041
105971
2361.02
32676.7
44983
51698.5
56053.1
58586.5
59725.1
86363.1
86267.2
86049.4
85714
85653.2
89551.7
93145.9
106080
2422.06
32890.7
45187
51790.7
56099
58617.5
59747.9
81420.3
80752
79363.2
77148
76793.9
75683.4
78189.8
2297.09
24805.3
38082.6
45943.1
51391
54644
56156.1
81377.7
80705.1
79311
77092.1
76729.6
75609.7
78120.2
2294.25
24788.8
37966.9
45884.2
51329.7
54587.1
56102.5
81318.5
80641.7
79229.2
77000.3
76672.6
75505.9
77960.6
2292.04
24513.2
37971.6
45831.3
51256.2
54517.1
56027.4
81260.2
80572.9
79130.3
77073.1
76869.3
75327.8
77665.7
2291.67
24573.1
36893.2
45936.9
51191.7
54445.5
55944.1
81214.9
80520.9
79206.1
79088
77328.3
77258.3
78177.2
2296.65
22557.4
36336.7
45388.9
51135.9
54390
55865.1
81183.9
80616.4
80619.9
79268.3
78563.7
78106.9
78005.7
2280.43
22600.6
35926.2
45207.4
50852.5
54251.2
55783.9
81176.7
80610.7
80571.4
79318.9
79273
78051.8
77888.8
2275.05
21500.2
35401.9
44716
50688.6
54125.4
55690.9
81168
80607.2
80550.6
80135.8
79335.4
78008.8
77820.7
2275.48
18066
34414.2
44299.3
50520.3
54060.2
55623.6
81185.7
80621
80554.5
80152.8
79335.6
78004.8
77814.8
2263.86
15810.5
33774.4
44117.4
50499.6
54066.8
55642.4
81193.2
80619.2
80584.4
79340.8
79271.1
78040.3
77876.9
2199.27
18211.9
34326.6
44437.8
50621.7
54155.5
55703.1
81226.7
80536.7
79216.3
79066.9
78530
78076.1
77977.1
2436.29
21669.7
35329.2
45018
50996.5
54277.6
55770.3
81263.1
80577
79141.6
77063.9
76868.2
75370.9
77210.4
2286.95
23174.7
36824.8
45802.8
51071.2
54331.7
55836.9
81302.1
80624.8
79208
76965.2
76583.5
75290.3
77571
2292.57
24461.5
37924.5
45724.4
51136.6
54394.4
55906.3
81334.3
80659.4
79256.8
77010
76634.3
75365.4
77720.3
2292.03
24649.3
37859
45758.7
51189.8
54442.9
55959.3
81343.3
80672.1
79273.5
77028.5
76615
75402.9
77797.5
2302.41
24577.2
37911.9
45789.8
51227.8
54475.8
55985.9
77115.2
75910.4
73381.7
68963.8
66650.5
59059.8
54828.9
4918.97
2296.43
23673.7
36050.1
44058.7
49643.2
52979.2
54582.6
77072.2
75860.6
73317.5
68878.5
66559.3
58960.5
54754
2398.82
2297.07
23659.8
35915.5
44012.4
49564.4
52911.3
54515.9
77015.2
75797.5
73217.6
68711
66411.9
58750.7
54593
2637.87
2299.11
20176.1
35904.2
43900
49446.8
52808.9
54410.7
76968.2
75748.6
73076.1
68574.2
66237.5
58436.5
54276.1
2432.51
2304.01
20524
33322.5
43802.3
49288.9
52685.3
54282.9
76951.8
75709.7
72982.6
71468.3
65888.5
61196.1
55964.1
2454.38
2289.98
18549.7
31907.9
41964.3
49079.6
52553.6
54140.1
76956.7
75717.3
74902.6
71295.2
67782.7
62417.1
55924
3355.69
2290.24
18339.7
30880.3
41518.1
47792.4
52319.6
53994.1
76956.9
75708.3
74871.3
71150.6
68592.1
62359.5
55895.6
2288.6
2201.69
16741.9
29929.5
40219.4
47501.5
52125.7
53850
76958.9
75720.3
74855.9
72534.4
68563.7
62345.8
55865.1
2320.96
2161.34
13081.1
28741.1
39390.5
47279.1
52036.3
53772.1
76987
75742.5
74880
72568.8
68582.4
62365.8
55882.2
2320.07
2259.72
11956.3
28486.6
39285.7
47286.9
52069.1
53804.1
77006.5
75772.2
74947.4
71252.9
68665
62425.8
55996.9
2347.28
2201.88
15329.8
29414.7
40057.3
47502.8
52226.9
53919.2
77019.9
75786.5
73082.6
71529.2
67902.4
62509.3
56110
3290.81
2649.03
17833.5
30492.9
41474.1
48946.1
52449.4
54056.1
77039.1
75826.9
73176.4
68691.7
66188.9
58418.6
54227.5
2294.68
2295.72
19208.9
33092.8
43694.8
49189.7
52592.7
54196.6
77074.1
75863.4
73292.9
68789.7
66328
58560.8
54224.1
2775.92
2297.29
20394.5
35834.4
43831.5
49358.5
52720.4
54322.3
77108.3
75902.2
73366.3
68919.8
66497
58724.5
54292.6
2289.78
2297.14
23615.2
35790.4
43929.7
49448.6
52799.2
54407
77120.3
75920.4
73398
68973.7
66564.3
58837.2
54386.9
2544.86
2294.78
23687.1
35815.4
43952.1
49505.6
52847.8
54447.4
74415.7
72800.9
69365.1
63295.2
52861.6
42938.7
18414.8
2412.48
2312.97
26148.3
37997.8
45667.9
50854.4
53954.7
55435.9
74362.6
72736
69266.9
63155.7
52635.1
42729.9
18663.3
2291.93
2304.15
25832.8
37730.1
45536
50733.1
53858.1
55347.3
74288.7
72648.5
69129.3
62950.6
52236.4
42226.7
18295.4
2257.76
2303.16
20979.5
37416.1
45313.5
50535.9
53695.4
55198.8
74221.1
72585.2
68964.7
62743.9
56567.6
41716.8
17936.8
2239.66
2302.86
20885.4
33489.2
44978.5
50256.9
53476
55002.6
74190.6
72552.3
68906.9
65274.8
56452.7
45466.2
24207.8
2258.99
2280.94
17844.7
31384.4
41986.7
49896.9
53239.7
54779.8
74198.6
72548.5
70549
65220.6
58618
47259.3
24980.7
2376.63
2291.13
17369.1
29724.7
41248.5
47682.8
52938.4
54559.7
74199.1
72540.2
70583.7
65176.9
59574.8
47262
24960
2292.36
2286.46
15211.3
28118.7
39139.6
47218
52683
54368.8
74213.1
72567.6
70609.1
66558.3
59551.4
47289.1
24991.2
2264.3
2306.07
7643.76
26223.5
37795.2
46912.4
52566.1
54282.1
74254.3
72607.2
70646.9
66605.7
59594.5
47331.9
25010.5
2290.81
2216.76
11092.4
26279.1
37722.3
46948.1
52626.8
54327.1
74294.9
72662.3
70703
65331.2
59702.3
47394.2
25194.5
2240.73
2314.31
14887.2
27881.1
39035.5
47292.5
52852.3
54494.1
74324.2
72704.7
69116.2
65512.2
58815.7
47443.5
25218.2
2488.65
2345.09
16993.8
29399.7
41348.5
49793.6
53156.4
54710.7
74368.8
72754.4
69186.3
63030.2
56781.7
41977.9
19619
2277.29
2281.95
18739.8
33218.2
44914.8
50197.3
53412.2
54937.7
74431.2
72812.9
69334.9
63213.3
52539.1
42223.8
18014.7
2275.5
2303.87
20894.5
37390.3
45291.9
50492.1
53637.5
55133.3
74486.6
72879.7
69449.2
63375.1
52852.3
42646.8
18062.5
2266.59
2302.72
25786.5
37657.3
45491.3
50664.2
53782.4
55264.8
74511.3
72916.4
69520.4
63497.5
53072.2
43017.8
18222.7
2282.27
2301.15
26198
37734.3
45569.4
50750.6
53850.7
55326.2
73958.9
72291.2
68721
62501.5
52054.3
39490.1
8021.6
2327.71
7467.82
33440.3
43741.3
50342.9
54702.4
57232.7
58434.4
73889.6
72204.5
68574.5
62258.7
51724.8
38666.9
6355.67
2286.17
5643.39
32631.7
43248.4
50108
54522.9
57103.5
58321.1
73792.6
72084
68368.6
61923.4
51383.9
37576.2
6479.88
2262.84
2305.47
24990.2
42893.1
49800
54241.9
56886
58130.3
73704.7
72000.5
68222.3
61758.2
53505.2
36686.4
8177.71
2269.18
2306.12
24755.5
37728
49343.6
53864.8
56594.3
57881.3
73666.8
71986
68254.4
63221.9
53211.9
39334.1
17604.7
2289.48
2298.23
20339.1
34805.5
45522.2
53440.8
56292.7
57607.3
73686.7
72034.6
69136.9
63158.5
54723.4
40537.1
17814.8
2337.9
2308.38
19562.2
32442.4
44560.8
50586.4
55988.2
57350.9
73694.8
72044
69182.1
63211.7
55467.6
40580.4
17660.1
2315.9
6313.12
16080.7
29860.9
41701.1
49990.5
55714.9
57138.8
73726.2
72092.6
69258.1
64204
55540.5
40750.6
17736.8
2271.05
2298.17
2474.59
26292.3
39664.6
49625.3
55588.9
57051.7
73776.2
72148.5
69321.2
64273.3
55632.7
40848.3
17736.4
2279.46
2350.23
2399.54
25782.6
39507.1
49679
55670
57109.4
73828.3
72209.4
69359.1
63476.8
55722.8
40828.6
17787.2
2273.76
2282.97
14037
29040.2
41554.8
50130
55929.1
57308.9
73863.9
72220.2
68592.2
63611
55094.3
40834.7
17705.9
2291.32
2299.03
18802.5
31949.3
44809.4
53386.6
56247.2
57570.9
73925.5
72265.1
68587.6
62274.7
53851.4
37592
17085.8
2287.26
2298.97
21736.2
37401
49383
53868.1
56575.2
57853.2
74013.9
72349.7
68728.4
62441
52086.5
37814.6
8000.98
2271.78
2307.88
25033.6
43028.9
49891.9
54265.4
56873
58100.7
74094.7
72450
68903.6
62721.5
52137.5
39670.5
6024.82
2239.1
6174.65
33056.4
43385.4
50187.4
54523.5
57071.3
58271.9
74137.6
72512.2
69028.3
62987.9
52503.1
40811.3
6426.26
2255.98
3734.46
33232.1
43465.3
50353.5
54659.9
57169.7
58356.1
75964.8
74720.6
72099.5
67781.4
59102.8
49546.7
12187.9
2318.51
31185.6
49579.8
53809.2
58186.3
60873
62392.6
63139.2
75877.8
74605.4
71892.7
67329.6
58281.6
47365.3
2370.32
2315.03
30521
48736.1
53285.7
57873
60644.1
62237.4
63006.1
75755.7
74444.8
71609.1
66725.2
59193.3
44403.5
10737.4
2421.3
15051.7
37547.6
53020.5
57423.1
60291.9
61985.5
62785.9
75646.6
74311.6
71367.8
66390.3
58231.8
42672.2
14318.8
2282.92
5936.55
34972.8
46748.8
56924.7
59842.3
61657
62507.8
75596.3
74265.5
71357.3
66198
57338.1
42900.5
19688
2283.88
2306.3
27976.3
43134.9
52590.8
59475.2
61348.4
62224.4
75616.7
74337.7
71209.7
65989.1
57584.1
43181.9
19718.2
2302.39
6535.8
27306.5
40261.1
51724
56276.6
61108.1
61988.1
75627.2
74354.4
71215.5
66091
57965.4
43486.3
19570.5
2283.7
7830.23
22389.7
37176.5
48514.9
55751.5
60890.4
61796.4
75672.9
74423.4
71318.3
66452.3
58262.6
44333.7
20786.1
2276.29
2225.01
4298.97
32574.7
46139.6
55497.6
60802.7
61728.6
75729.9
74492.7
71410.6
66574.6
58473.6
44663.5
21194.1
2288.28
2276.23
2205.39
31251.2
45918.3
55558.5
60881.1
61791.2
75792.8
74562.2
71473.1
66542
58523.8
44231.9
19910.5
2255.96
3256.37
17575.6
35633.3
48401.2
55954.3
61108.6
61986.1
75837.5
74567.3
71817.6
66691.1
58386.7
44062.7
19335.1
2290.67
6126
26054.9
39726.5
52101.7
59510
61362.2
62233.5
75916.1
74649.6
71866
67167.6
58656.2
43703.7
19271.9
2296.42
2315.2
30582.2
46619.9
57128.6
59935.2
61696.1
62523.6
76027.3
74785.9
72107.2
67530.9
60486.4
44969.2
14421.1
2331.31
12926.1
36953.4
53549.5
57699.9
60406.4
62025.4
62794
76131.5
74922.3
72339.8
68059.1
59086
49083
3809.21
2323.16
32897.4
49904.2
53834.5
58155.1
60736.4
62253.6
62989.2
76193.2
75018
72539.7
68580.6
60372.5
51371.8
21750.9
2462.64
35539.3
50818.6
54194.3
58431.5
60913.3
62376
63091
79947.1
79480.4
78609.8
78328.4
76930.1
85133.2
122511
101110
85681.7
73909.7
68558.5
68739.1
68662.9
68799.2
68950.6
79846.1
79334.4
78352.8
77649
75662.9
82849.4
114104
87411.9
81677.4
72411.8
67923.8
68346.9
68404.6
68628
68804.7
79699.6
79123.5
77978.3
76231.1
74696
66703.5
60928.7
41737.3
45611.1
60050.2
66974.8
67454
67970.9
68348
68564.2
79563.6
78931
77581.8
75585.3
69627.8
61110.1
39858.3
10076.8
20787.4
56072
61261
66748.8
67437.2
67996.1
68267.2
79489.1
78828.5
77464.3
73428.5
68435.5
57320.7
32438.8
2659.6
12577.9
45918.5
57204
62922.8
67063.5
67694.3
67988.3
79494.9
78870.4
76169.8
73155.1
67095.1
55824.3
30185.6
2280.9
22256
44656.3
54260
62399.4
64260
67463.9
67800.3
79497
78885.3
76100.4
73306.2
66967.5
56770.7
32669.8
2382.44
19642.7
40010.4
52257.8
59757.7
64049.4
67322.3
67651.6
79543.9
78955.3
76218
72824.8
67546.8
59231.7
42914.4
2517.71
2192.37
26938.5
49710.5
58015.4
64092.2
67301.5
67619.2
79601.4
79024.1
76337.3
73011.1
67938.7
60321
45756.2
2324.82
2228.08
21380.4
49112.3
57985.1
64152.2
67359
67675.8
79673.4
79105
76444.7
73922.6
67969.6
59038.3
36533
2293.57
15609.7
36973.1
51643.2
59921.4
64269.5
67526.2
67840.7
79729.2
79139.5
77958.5
74016.6
68479.6
58294.5
33166.7
2290.61
24430.9
44995.9
54455.5
62886.5
67223.2
67772.1
68039.7
79827.5
79275.2
78121.6
76491.4
70396.2
62647.8
36298.1
2315.58
14547.8
50940.7
61503.7
67121.6
67625.1
68084.8
68315.6
79961.6
79470.4
78523
77198
76489
66048.5
52871.1
36523.7
47671.1
60367.9
67847.4
67894.5
68148.3
68421.3
68593
80082.8
79650
78823.7
78547.8
77123.2
86120.3
123630
104245
87484
74354.1
68793.9
68721.2
68544
68667.1
68799.1
80156.9
79777.1
79074
79186.6
78716.6
87594.6
125416
125743
90806.2
75489.7
69439.4
69091.7
68745.4
68802.3
68909.5
84801.1
85139.4
85814.6
88810.3
93246.1
98928.5
127448
130959
110925
91383.4
82673.2
79094.9
76533.9
75465.9
75050.7
84709.7
85000
85644.7
88388.5
92591.7
99570.7
129571
137794
111390
91037.8
82261.8
78747.3
76302.2
75296.6
74903.4
84564.5
84754.2
85343
86811.3
91035.1
93890.3
119084
149213
116083
89115.3
81055.9
77714.9
75865
74989.4
74649.4
84421.8
84542.6
84893.7
85959.5
85374.1
90704.6
109625
145133
109792
86518.4
78269.3
76592.2
75239.8
74599.9
74328.6
84327.8
84399.1
84584.2
83021.4
83732.2
83251.6
83260.9
87171.8
87742.2
78517
75104.2
74134.8
74735.6
74248.5
74021.8
84311.3
84284.8
82734.6
82601.6
81219.5
79785.8
75906.6
17783.8
70248.1
74288.7
72779.4
73680
72842.8
73944.2
73815.1
84289.9
84252.1
82665.4
82458.2
80205.7
80003.4
78641.3
13541.3
60252.9
72589
73329.1
73077.2
72970.5
73814.3
73679.1
84320.4
84292.9
82726.7
81462.6
80549.2
81486.3
87930.3
37870.4
55493.5
77908.8
77324.9
73875.4
73250
73834.2
73673.6
84365.7
84347.2
82845.4
81628.7
80949.3
82756.9
96654.9
63301.8
58125.5
80673.3
78531.4
74251.9
73339.4
73886.8
73726
84442.2
84460.5
82994.4
83003.8
81326.9
82879
91735.5
92895.2
69758.6
75112.2
74800.9
73675.7
73242.4
74043.3
73881.1
84501.9
84620.9
84938.4
83528.4
82803.4
83230
87092.5
82401.8
78473.9
76329.3
73899.5
74305.8
74934.9
74350.3
74090.4
84604.6
84785.7
85280.8
86631.9
86160.9
91476.7
99189.4
128210
99183.7
83197
78262
76951.1
75421.8
74686.1
74376.1
84733.3
84991.3
85735
87509.5
92374.5
95564.4
120781
156382
117146
90077.7
81573.1
77986.6
75989.2
75035.5
74658.8
84837.1
85186.2
85921.9
88915.6
93367.9
100452
128983
132437
109814
91524.1
82643.1
78881.9
76341
75286.6
74862.1
84892.4
85285.8
86054.8
89137
93718.3
99636.7
122866
121132
105608
91476.3
82924.1
79124.7
76504
75405.9
74964.2
89214.8
89944.3
91054.4
93903.5
98708.2
98613.1
105459
114006
105093
95566.6
90210
86004.5
82794.8
81281.2
80556.4
89181.5
89894.2
91112.7
94177.1
99073.2
100645
108688
118843
106528
96338
90349.9
85906.4
82667.8
81147.7
80429.5
89112
89739.8
91167.8
93815.7
98715
102313
110679
127732
110580
98886.3
89790.7
85303
82381.3
80862.5
80193.1
89029.8
89624.5
90982.9
93852.2
95842.9
104387
119338
139728
121611
99642
89406.8
84484.5
81839.3
80469.3
79869.7
88946
89486.9
90719.1
91402.9
95477.6
102351
120410
163392
128915
100060
87948.7
82922.5
81219.7
80040.1
79522.7
88892.4
89259
89246.5
90900
93260.9
100166
121148
175288
125908
96363.6
86198.4
82309.2
79976.7
79626.9
79249.8
88856.3
89184.7
89168.2
90620.6
92065.6
98864.7
115880
156630
107969
92228.5
87580.4
82857.1
80147.9
79496.4
79099.3
88869.9
89193.6
89159.3
89670.9
91789.6
97456.1
108656
76692.7
81024.2
116162
104929
86368
80670.2
79556
79107.5
88892.6
89233.3
89217.2
89728
91863.8
97332.9
106711
99751.8
56781.2
139630
109608
87022.3
80722
79610.7
79161
88951.1
89341.7
89324.8
90906.1
92324.1
98923.2
112981
130327
86322.9
94783.6
90276.6
83578.8
80430.6
79747.5
79322.6
89009.7
89567.7
90883.5
91411.8
93820.4
100904
121288
166221
120662
96461.1
87289.6
83051.5
81426.8
80133.6
79581.2
89069.2
89679.8
91067.6
93969.2
96025.4
105113
121464
156473
126336
99695
88810.1
84577.3
81903.8
80496.4
79878.8
89113.6
89755.4
91207.7
93847.5
98544.2
103328
112970
127878
110822
98529.7
89434.2
85186.8
82331.1
80813.5
80139.9
89119.5
89827.9
90994.4
93974.7
98334.6
99159.1
104973
109595
102799
95120.5
89581.9
85551.6
82484.1
81011
80305.4
89103.9
89814
90872.3
93541.6
97528.3
97240
100829
103853
100019
94144.6
89119
85487.6
82521.9
81079.5
80375.5
92436.5
93115.8
93986.8
95302.8
98614.3
98284.2
99009.6
103540
97955.9
94922.2
92489.3
89394.3
86945.4
85649.8
84921.3
92479.6
93176
94171.9
95891.9
99292.3
99739