/*--------------------------------*- C++ -*----------------------------------*\
| =========                 |                                                 |
| \\      /  F ield         | OpenFOAM: The Open Source CFD Toolbox           |
|  \\    /   O peration     | Version:  v2012                                 |
|   \\  /    A nd           | Website:  www.openfoam.com                      |
|    \\/     M anipulation  |                                                 |
\*---------------------------------------------------------------------------*/
FoamFile
{
    version     2.0;
    format      ascii;
    class       volScalarField;
    location    "0.045";
    object      p_rgh;
}
// * * * * * * * * * * * * * * * * * * * * * * * * * * * * * * * * * * * * * //

dimensions      [1 -1 -2 0 0 0 0];


internalField   nonuniform List<scalar> 
449343
(
103047
103173
103381
103574
103646
103360
102541
101114
99132.5
96807
94431.5
92282.4
90553.7
89356.7
88747
103046
103172
103380
103573
103643
103356
102536
101109
99128.5
96805.1
94431.1
92282.2
90552.8
89355
88744.9
103046
103172
103379
103571
103639
103347
102525
101097
99120
96801
94430.4
92282.1
90551.4
89352.1
88741.2
103045
103171
103378
103568
103632
103333
102508
101079
99106.5
96794.2
94430
92283.1
90550.4
89348.8
88736.6
103044
103170
103377
103565
103624
103316
102486
101056
99088.7
96786
94430.4
92285.6
90550.4
89346
88732.1
103044
103170
103377
103563
103616
103302
102467
101038
99076.4
96782.7
94434.7
92290.9
90552.7
89344.2
88728.4
103043
103169
103376
103561
103610
103292
102455
101026
99068.7
96782.4
94436.9
92296
90554.8
89343.9
88726.5
103042
103168
103374
103559
103605
103286
102445
101014
99059.3
96780.3
94438
92297.1
90554.6
89342.7
88724.9
103041
103167
103372
103557
103605
103287
102449
101020
99063.6
96778.7
94433.9
92293.4
90552.2
89341.4
88724.3
103039
103165
103371
103556
103606
103292
102457
101029
99068
96775.2
94427.4
92284.9
90547.9
89340.5
88725
103038
103163
103369
103555
103611
103303
102472
101043
99077.4
96776.2
94422.5
92278.9
90544.9
89341
88727.4
103037
103162
103368
103556
103617
103316
102490
101062
99091.2
96781.9
94420.2
92275.1
90543.8
89343
88731.1
103037
103162
103367
103557
103622
103328
102505
101079
99104.1
96788
94420
92273.6
90544.3
89345.9
88735.4
103037
103162
103368
103558
103626
103336
102516
101091
99112.6
96791.9
94420.4
92273.5
90545.5
89348.7
88739
103037
103162
103368
103559
103627
103340
102522
101096
99116.5
96793.8
94420.8
92273.8
90546.5
89350.4
88741.1
102907
103081
103389
103735
103982
103919
103236
101745
99509.1
96843.4
94167.9
91818.9
89979.4
88728.4
88097.6
102907
103080
103389
103735
103981
103915
103229
101739
99504.9
96842.5
94168.5
91818.8
89977.8
88725.8
88094.6
102906
103080
103388
103734
103979
103906
103216
101726
99497
96841.4
94171.2
91819.8
89975.6
88721.4
88089.1
102905
103079
103388
103733
103973
103889
103192
101698
99482.3
96837.2
94176.3
91823.3
89974.1
88716.1
88082.2
102904
103079
103389
103733
103968
103863
103159
101663
99437.1
96830
94185.6
91830.6
89974.2
88711.4
88075.3
102903
103080
103390
103734
103964
103847
103132
101639
99430.3
96831.4
94199.3
91841.9
89977
88708.1
88069.5
102903
103080
103392
103734
103957
103843
103126
101633
99426
96840.7
94221.9
91855.3
89980.2
88706.5
88065.7
102902
103079
103390
103733
103953
103835
103106
101566
99406.8
96836.4
94225.6
91858
89979.8
88705
88063.5
102901
103077
103388
103730
103951
103836
103114
101621
99418.6
96836.2
94219
91852.5
89977.3
88703.9
88063.4
102899
103075
103384
103726
103954
103837
103123
101631
99421.7
96823.3
94190.7
91835.2
89971.6
88703.5
88065.4
102898
103072
103380
103722
103954
103848
103144
101650
99428.9
96820.5
94177.3
91823.2
89968
88705.8
88070.1
102897
103071
103377
103720
103956
103870
103171
101677
99460.9
96823.4
94165.8
91814.9
89966.9
88709.9
88076.4
102897
103070
103376
103719
103960
103885
103194
101706
99480.1
96828
94160.5
91811.2
89968.3
88715
88083.2
102898
103070
103376
103720
103962
103893
103208
101719
99488.8
96829.1
94158
91810.3
89970.7
88719.6
88088.8
102898
103070
103376
103720
103963
103898
103214
101726
99493
96830.3
94157.7
91810.7
89972.4
88722.3
88091.9
102550
102832
103366
104075
104789
105285
105010
103356
100442
96884
93472.2
90669
88588.2
87222.2
86547.4
102549
102831
103366
104076
104789
105281
105000
103348
100438
96885.3
93474.1
90668.1
88584.5
87217.1
86541.8
102547
102830
103367
104078
104792
105276
104979
103330
100429
96892.6
93484.2
90669.6
88578.9
87208.1
86531.6
102545
102829
103370
104083
104795
105257
104931
103303
100388
96895
93506
90677.8
88573.7
87197
86518.5
102543
102830
103375
104091
104795
105206
104824
103173
100277
96912.3
93536.3
90692.4
88571.5
87186.1
86504.7
102543
102832
103383
104101
104806
105172
104776
103151
100277
96936
93587
90716.4
88572.6
87177.4
86492.6
102542
102834
103386
104112
104794
105174
104754
103130
100268
96950.5
93701.6
90747.3
88579
87172.5
86484.2
102542
102834
103386
104113
104795
105176
104762
103138
100249
96943.8
93701.3
90749.6
88577.2
87169.4
86480.2
102540
102831
103382
104107
104787
105164
104743
103119
100259
96942.3
93696.6
90741.7
88573.7
87168.3
86480.9
102539
102828
103376
104092
104794
105157
104758
103133
100263
96923.8
93575.9
90707.8
88565.3
87171.5
86487.4
102538
102823
103365
104078
104778
105186
104802
103159
100273
96900.3
93525.1
90683
88563.5
87179.3
86498.7
102539
102822
103359
104068
104775
105226
104898
103266
100357
96877.7
93493.8
90668.1
88565.5
87190.1
86512.3
102541
102821
103355
104062
104769
105246
104950
103308
100409
96877.6
93472.9
90660.6
88571.3
87201.7
86525.8
102542
102822
103354
104059
104768
105254
104973
103324
100419
96871
93463.8
90660
88577.7
87211.3
86536.5
102544
102823
103354
104058
104768
105259
104984
103334
100425
96871.3
93463.1
90661.7
88582
87216.8
86542.5
101846
102285
103160
104450
106024
107585
108474
106509
102104
96677.5
92017.2
88582.2
86215.1
84732.5
84021.3
101843
102283
103160
104451
106027
107583
108450
106496
102094
96677.9
92017.5
88576.7
86206.2
84722.7
84011.3
101838
102280
103161
104460
106041
107590
108442
106493
102115
96715
92036.3
88572.4
86191.2
84704.8
83992.8
101833
102277
103166
104477
106058
107603
108224
106467
101977
96795.1
92094.8
88577.1
86173.6
84681.4
83968.2
101828
102277
103177
104498
106089
107525
107420
106131
102736
96940
92181.9
88601.4
86157.8
84655.8
83941
101825
102280
103199
104557
106157
106720
107282
106085
102780
98183.9
92314.2
88638.9
86148.5
84631.4
83915.6
101823
102284
103213
104578
105503
106751
107234
106028
102739
98206.1
93621.4
88671.3
86143.9
84617
83897.7
101821
102285
103218
104583
105498
106764
107247
105925
102721
98204.4
93597.1
88667.1
86144.6
84612.9
83889.1
101821
102281
103206
104571
105490
106746
107219
105990
102717
98192.6
93595.6
88657.3
86131.2
84609.7
83892.8
101823
102277
103194
104548
106140
106704
107226
106021
102719
98181.5
92299.2
88625.1
86139.1
84624.2
83909.4
101825
102271
103166
104480
106066
107490
107360
106082
102754
96918
92164.5
88587.2
86147.2
84647.9
83934.4
101830
102272
103155
104460
106031
107557
108182
106422
101954
96779.7
92082.4
88565.9
86164.4
84674.3
83962.3
101836
102274
103149
104440
106012
107545
108386
106461
102092
96699.4
92025.8
88563.9
86184.4
84699.5
83988.4
101841
102277
103148
104433
106001
107546
108416
106466
102071
96665.3
92010.3
88571.1
86201.6
84719.2
84008.5
101844
102280
103149
104432
106000
107550
108442
106483
102087
96669.1
92013.1
88578.6
86212
84730.1
84019.4
100594
101204
102473
104498
107344
110908
114745
112013
104627
95486.7
89106.3
85158.1
82664.8
81191.3
80513.3
100587
101199
102470
104498
107347
110910
114716
111999
104615
95483
89096.6
85139.9
82645.7
81173.7
80496.8
100576
101190
102466
104508
107382
110946
114705
111990
104667
95528.2
89105.2
85111.7
82610.9
81141.1
80465.6
100562
101179
102468
104555
107515
111081
112334
112037
106214
95939.9
89240
85098
82563.7
81095.8
80422.9
100547
101169
102479
104599
107575
109559
112270
111923
106282
98220.5
89375.8
85081.8
82511.6
81041.9
80373.6
100535
101170
102521
104778
106685
109709
112241
111751
106186
98446.9
91602.4
85139.3
82443.3
80991
80325.6
100525
101160
102518
104193
106748
109776
111289
111046
106513
99439.2
91780.1
86992.9
82359.1
80937.3
80287.5
100525
101166
102576
104190
106779
109798
111288
111002
106517
99467.1
91835
87031.3
82447.7
80921.3
80276.5
100525
101157
102507
104172
106759
109780
111253
110997
106478
99446.9
91802.8
87010.4
82326.9
80924.8
80280.2
100537
101171
102519
104767
106661
109678
111319
111016
106470
98455.7
91643.5
85110.9
82434.1
80981.9
80318.3
100548
101165
102467
104575
107539
109547
112156
111711
106114
98299.1
89349.7
85058.6
82496.4
81032.2
80366.9
100565
101180
102460
104535
107478
111021
112240
111944
106274
95936.5
89230.5
85085.3
82554.4
81089.9
80418.9
100580
101190
102457
104486
107343
110890
114635
111953
104635
95515.8
89097.8
85105
82606.6
81139.1
80465
100593
101200
102462
104478
107314
110862
114658
111951
104595
95482.2
89098.1
85139.7
82646.1
81175.3
80499.1
100600
101207
102467
104479
107312
110861
114690
111976
104615
95493.5
89113.4
85161.9
82668.3
81195.1
80517.5
98544.7
99279
100866
103593
107952
114821
120411
125814
112222
91046.5
83558
79861.5
77691.6
76533.2
76037.9
98532.4
99266.6
100854
103585
107955
114822
120392
125776
112161
90977.9
83510.1
79815.1
77655.8
76505.1
76013.1
98509.5
99244.2
100833
103566
107959
114853
120354
125709
112057
90866.8
83411.1
79713.5
77586.3
76451.4
75965.8
98478.4
99216.5
100817
103601
108299
112628
120381
125727
111962
95293.3
83436
79542.9
77480.8
76375.2
75899.4
98440.8
99173.9
100775
103639
107057
112860
120594
123219
113257
95949.1
86674.6
79359.7
77301
76268
75819.3
98411.9
99136.8
100809
103209
107127
111873
118762
122070
113223
98258.4
86791
81744.2
77110.6
76146.3
75737.2
98383.2
99093.8
100788
103230
107232
111875
117797
121993
113698
99226.3
88520.7
81753
76954.7
76039.2
75670.3
98373.3
99071.4
100785
103283
106583
111346
117768
121920
113648
99257.4
88491
81732.6
78903.5
75985.8
75649.7
98385.9
99095.4
100787
103250
106568
111802
117743
121887
113607
99213.8
88450.6
81670.1
76922
76026
75662.2
98420.2
99141.6
100805
103169
107181
111845
117711
121921
113624
99145
88463.3
81707.6
77085.6
76129
75728
98450.4
99176.4
100766
103616
106995
112821
118579
122951
113159
98057.8
86718
79319.3
77278
76258
75813.8
98493.4
99228.9
100818
103579
108246
112573
120290
125603
111918
95447.8
83429.3
79530.7
77473.3
76373
75899.8
98526.3
99253.9
100831
103545
107909
114769
120249
125595
111999
90884.5
83414
79712.5
77587.1
76455.4
75971.7
98552
99280.8
100856
103569
107913
114751
120280
125673
112105
91004.1
83525.7
79824.7
77665
76515.2
76024.1
98565.4
99294
100869
103577
107910
114752
120328
125746
112208
91093.1
83583.6
79878.8
77706.3
76547.2
76052
95479.6
96190
97778.8
100679
105640
112442
128892
158887
116796
83761.8
73384.6
71951.7
71126.4
70832.7
70741
95459.1
96167.3
97751.9
100647
105608
112418
128844
158822
116486
83533.7
73257.1
71861.3
71071.9
70794.1
70708.7
95418.3
96118.5
97689.6
100550
105465
112346
128692
158682
116222
83304.5
73027
71693.9
70967.9
70717.9
70646.5
95360.7
96051.3
97603.3
100305
104791
112631
128611
158419
115820
83214.5
76274.9
71270.7
70800.1
70605.5
70558.2
95281.5
95943.1
97394
100322
104757
111671
125550
158101
116653
87043.7
75894.2
73343.6
70467.8
70449.2
70447.7
95205.5
95790.4
97822.5
100345
104451
111554
124002
152881
121411
89052.7
78111.3
73142.3
72060.9
70264.1
70337.5
95162.1
95735.1
97800.5
100313
104429
111061
123764
152550
121556
89209.1
79379.3
74631.7
71924.2
70191.6
70267.1
95134.3
95706.6
97846.8
100319
104398
110978
123613
152335
121746
89250.2
79316.4
74551.1
71889.8
70176.9
70223.8
95170
95741.4
97807.5
100339
104410
110960
123566
152236
121551
88998.6
79174.5
74492.6
71837.3
70177
70260
95224.9
95806.6
97830.2
100291
104424
111003
123642
152308
121417
88829.4
79111.6
74523.4
71943.2
70231.2
70325.7
95306.2
95961.2
97396.8
100293
104679
111521
123851
152600
121412
88928.7
78073.9
73149.6
70439.4
70449.8
70448.4
95393.2
96077.7
97620.4
100290
104608
112400
125418
157894
116166
87422.3
76139.6
71267.4
70797.6
70610.3
70566.4
95455.7
96147.9
97699.4
100540
105416
112217
128466
158286
116144
83342.5
73051.6
71705.3
70978
70731.9
70662.9
95501.1
96202.5
97773.8
100641
105563
112316
128632
158538
116309
83499
73292.1
71885.4
71094.6
70817.4
70732.7
95523.3
96226.3
97798.2
100673
105593
112342
128725
158674
116660
83754.1
73441.3
71990.1
71157.8
70862
70769.8
91333.2
91764.2
92725.4
94493.6
97407.6
104047
111366
108785
29700.3
54306.5
58804.4
61626.6
63411.6
64543.4
65059.9
91306.2
91732.9
92685.9
94438
97353.8
103990
111315
108679
24386
53665.3
58553.6
61506.1
63352
64501.5
65025
91249.8
91660.9
92597.4
94347.3
97202.5
103836
111161
108516
23906.3
53288
58355.8
61403.9
63263.8
64426.2
64961.5
91168.3
91547.1
92449.6
94013.3
98398.4
103346
110805
108226
23644.9
53198.8
59580.8
61348.4
63157.3
64324
64877.2
91056.7
91393.2
92194.9
95074.3
98080.2
103630
111425
107759
24065.3
56434
61035.9
62502.3
63105.7
64227.6
64780.2
90930.9
91248
93263.8
94912.8
98472.3
103762
111031
107108
24595
57020.6
62041.6
62565.1
64070
64185.1
64691.6
90891.5
91195.8
93216.5
94803.7
98663.4
103590
110716
106482
28172
57886.1
62304.1
63470
63972.2
64164
64649.1
90872.4
91164.3
93177.2
95415
98620.1
103485
110512
106008
27610.4
58297.7
62234.4
63862.5
63969.8
64160.7
64612.8
90906.7
91208.6
93188.7
95410.2
98616
103466
110458
105923
26705.9
56736.3
61731
63711.7
63907.3
64147.2
64641.3
90968.6
91281
93253.7
94833.9
98648.3
103540
110570
106064
25488
55958.4
61473.5
63212.3
63912.2
64165.3
64683.4
91104.6
91438.3
92232.6
94986.4
98484.5
103696
110844
106572
26708.9
56483.8
61584.9
62355.8
63072.8
64221.7
64786.4
91229.7
91600.8
92483.3
94029.2
98238.2
102887
110199
107334
26495.3
55229.6
59472
61347.6
63156
64334.7
64895.1
91319.8
91723.7
92642.8
94357.2
97175.4
103484
110717
107836
24329.6
53375.7
58417.7
61433.3
63288.9
64454.6
64992.5
91382.7
91801.7
92737.9
94461.8
97333.6
103838
111024
108182
24155.9
53581.6
58611.2
61548.9
63393.2
64542.9
65067
91412.5
91835.3
92777.8
94514.4
97382.1
103942
111154
108333
25084.6
54135.8
58894.7
61690.2
63466
64593.8
65108.9
86370.2
86281.1
86079.9
85775.7
85755.1
89746.4
93434.3
106585
14716.2
33245.4
45247.2
51839.8
56154.5
58678.4
59810.7
86342.8
86248.9
86041.7
85729.4
85720.9
89687.8
93379.9
106387
2333.69
32712.4
45005.9
51743.2
56104.6
58640.2
59778.2
86288.5
86182.5
85962.8
85675.1
85636.5
89540.5
93228.2
106242
2302.62
32504.3
44946.4
51710
56052.1
58586.9
59725.6
86215.1
86077.2
85843.9
85683.3
88303.1
89414.8
92920.5
106019
2368.23
32593
45079.9
51842.3
56021.7
58532.7
59666.4
86126
85963.3
85779.2
87602
88257.1
91106.4
93818.6
105842
2273.68
32372.8
45646.2
52469
56058.4
58513.2
59614.3
86036.9
85942.5
87274.8
87476.7
89380.3
91766.4
93552.2
105263
2354.14
32989.4
46030
52416.5
56571.2
58486
59567.5
86020
85931.1
87159
87421.5
89941.3
91596.3
93323.4
104917
3890.17
34209.8
46114
52680.4
56483
58446.7
59529.7
86014.6
85919.1
87111.8
88343.5
89878.1
91503.4
93173.8
104412
6810.17
34787.5
45706.9
52712.1
56383
58423
59492
86049.3
85959.8
87130.5
88348.3
89882.6
91498.2
93145.6
104172
2770.7
29765.8
44796.6
52510.6
56351.9
58421.7
59518.8
86095.1
85995.4
87211.9
87495.7
89942.8
91586.1
93259.3
104662
2538.15
29155.8
44719.4
52368.7
56427.5
58461.6
59560.4
86209.6
86045
85848
87530.5
89444.8
91765.2
93477
105064
2578.23
31793.3
45374.9
52231
56023.3
58509
59627.5
86319.1
86177.8
85936.2
85746.5
88337.4
89479.2
92886.6
105693
2355.76
32535.2
45242.2
51849
56038.2
58557.5
59698.3
86405.8
86295.3
86064.9
85756.5
85676.3
89432.1
92920.9
105859
3749.39
32700.3
45052.2
51768.6
56100.7
58635.4
59776.1
86469.2
86369.2
86147
85806
85758.8
89579.1
93151.4
106080
2467.43
32789.6
45100.7
51816.2
56170.8
58704.2
59842.9
86500.5
86404.5
86186.8
85851.4
85790.6
89684.2
93275.9
106208
2548.97
33023.1
45324.4
51928
56236.3
58754.8
59885.2
81283
80614.7
79225.8
77010.7
76651.6
75541.2
78045.1
2192.52
24663.1
37945.3
45805.8
51253.6
54506.7
56018.8
81260
80587.4
79193.2
76974.4
76607
75487.1
77995.1
2197.77
24666.2
37849.2
45766.5
51212
54469.4
55984.8
81220.4
80543.6
79131.1
76902.2
76569.5
75402.9
77855.1
2213.19
24410.2
37873.5
45733.2
51158.1
54419
55929.3
81181.7
80494.4
79051.8
76994.6
76785.9
75244.4
77579.9
2227.94
24489.7
36809.8
45858.4
51113.2
54367
55865.6
81156
80462.1
79147.3
79024.3
77264.6
77192.1
78109.8
2252.52
22490
36270.4
45325.1
51077
54331.2
55806.2
81144.7
80577.1
80575.7
79224.1
78517.1
78059.1
77957.9
2241.92
22552.8
35878.3
45163.3
50808.4
54212
55744.7
81157.1
80591.1
80546.9
79294.4
79244.8
78023.6
77860.6
2264.75
21472
35373.7
44689
50664
54105.8
55671.3
81168
80607.2
80545.7
80128.5
79326.8
78000.2
77812.1
2272.55
18057.4
34405.6
44290.7
50515.3
54060.2
55623.6
81205.3
80640.6
80569.2
80165
79346.6
78015.8
77825.9
2264.56
15821.5
33785.5
44128.4
50514.4
54086.4
55662
81232.4
80658.5
80618.8
79375.1
79301.8
78071
77907.5
2199.7
18242.6
34357.2
44469.6
50656
54194.8
55742.3
81285.6
80595.6
79275.2
79120.9
78581.5
78126.4
78027.4
2486.52
21720
35379.5
45072
51055.4
54336.4
55829.2
81341.5
80655.5
79220.1
77142.4
76941.8
75444.4
77281.5
2324.22
23245.8
36898.4
45881.2
51149.7
54410.2
55915.4
81400.2
80722.9
79306.1
77063.3
76676.7
75383.5
77661.7
2357.98
24554.7
38022.6
45822.5
51234.7
54492.5
56004.4
81452
80777.2
79374.5
77127.7
76747.1
75478.2
77830.6
2375.65
24762.1
37976.7
45876.4
51307.5
54560.7
56077
81480.7
80809.4
79410.8
77165.9
76747.5
75535.3
77927.5
2424.93
24709.6
38049.3
45927.1
51365.2
54613.1
56123.2
76977.9
75773.1
73244.4
68826.5
66508.2
58917.6
54684.2
4772.43
2171.52
23536.3
35912.7
43921.4
49505.9
52841.9
54445.2
76954.5
75742.9
73199.8
68760.8
66436.7
58837.9
54628.9
2277.78
2197.49
23542.1
35797.7
43894.6
49446.7
52793.6
54398.2
76917.1
75699.4
73119.5
68612.9
66308.9
58647.7
54487.5
2536
2215.54
20073.1
35806.1
43801.9
49348.7
52710.8
54312.6
76889.7
75670.1
72997.6
68495.7
66154.1
58353.1
54190.3
2403.09
2246.38
20440.6
33239.1
43723.8
49210.4
52606.9
54204.4
76892.9
75650.8
72923.7
71404.5
65824.7
61129.9
55896.7
2391.04
2257.07
18482.2
31841.7
41900.6
49020.8
52494.8
54081.2
76917.4
75678.1
74858.5
71251.1
67736.2
62369.3
55876.2
3324.55
2257.14
18291.9
30832.4
41474
47748.2
52280.4
53954.8
76937.2
75688.7
74846.7
71126
68563.9
62331.3
55867.4
2284.35
2197.72
16713.7
29901.3
40192.4
47477
52106.1
53830.4
76958.9
75720.3
74851
72527
68555.1
62337.3
55856.5
2315.5
2161.06
13072.5
28732.5
39381.9
47274.2
52036.3
53772.1
77006.6
75762.1
74894.7
72581.1
68593.5
62376.9
55893.3
2327.87
2261
11967.3
28497.7
39296.8
47301.6
52088.8
53823.7
77045.7
75811.4
74981.7
71287.3
68695.6
62456.5
56027.5
2352.52
2202.69
15360.4
29445.4
40089.2
47537.1
52266.1
53958.4
77078.8
75845.4
73141.4
71583.2
67953.9
62559.6
56160.3
3340.09
2699.31
17883.8
30543.1
41528.1
49004.9
52508.2
54114.9
77117.6
75905.4
73254.9
68770.1
66262.5
58492.2
54298.6
2295.62
2341.58
19280
33166.4
43773.2
49268.2
52671.2
54275.1
77172.2
75961.5
73391
68887.8
66421.2
58654
54314.8
2845.5
2373.18
20487.7
35932.5
43929.6
49456.6
52818.5
54420.4
77226.1
76019.9
73484
69037.5
66609.9
58837.3
54403
2291.63
2389.71
23732.9
35908.1
44047.4
49566.3
52917
54524.7
77257.6
76057.8
73535.4
69111.1
66696.7
58969.6
54516.9
2617.18
2420.59
23824.5
35952.8
44089.5
49642.9
52985.2
54584.8
74278.4
72663.5
69227.7
63157.9
52724.3
42796.4
18270.1
2333.14
2177.67
26010.9
37860.5
45530.6
50717.1
53817.4
55298.6
74244.8
72618.3
69149.1
63038
52517.4
42607.3
18538.2
2287.44
2198.96
25715.1
37612.4
45418.3
50615.4
53740.4
55229.6
74190.6
72550.4
69031.2
62852.5
52138.3
42123.7
18190
2256.85
2217.68
20876.5
37318
45215.4
50437.8
53597.3
55100.7
74142.6
72506.8
68886.2
62665.4
56484.3
41633.4
17851
2239.51
2238.37
20802
33405.8
44900
50178.4
53397.6
54924.1
74131.8
72493.4
68848
65211
56388.9
45400
24140.4
2258.44
2253.2
17777.2
31318.2
41922.9
49838
53180.9
54721
74159.3
72509.2
70504.9
65176.4
58571.4
47211.5
24932.9
2376.15
2265.21
17321.3
29676.8
41204.3
47638.7
52899.2
54520.5
74179.5
72520.6
70559.2
65152.4
59546.6
47233.8
24931.8
2287.98
2265.63
15183.1
28090.5
39112.6
47193.5
52663.4
54349.2
74213.1
72567.6
70604.2
66551
59542.9
47280.5
24982.6
2264.19
2302.57
7635.17
26214.9
37786.6
46907.5
52566.1
54282.1
74274
72626.8
70661.6
66618
59605.5
47342.9
25021.5
2291.58
2217.39
11103.4
26290.2
37733.4
46962.8
52646.4
54346.8
74334.1
72701.5
70737.4
65365.6
59733
47424.8
25225.1
2241
2341.75
14917.8
27911.7
39067.4
47326.8
52891.5
54533.3
74383.1
72763.5
69175.1
65566.2
58867.2
47493.8
25268.4
2530
2394.4
17044.1
29450
41402.4
49852.5
53215.3
54769.5
74447.3
72832.9
69264.8
63108.7
56855.3
42051.4
19690.1
2277.43
2303.48
18810.9
33291.7
44993.3
50275.8
53490.7
55016.2
74529.3
72911
69433
63311.4
52637.2
42317
18105.4
2276.14
2382.16
20987.6
37488.4
45390
50590.2
53735.6
55231.4
74604.3
72997.4
69566.9
63492.9
52970
42759.6
18172.9
2267.75
2398.21
25904.2
37775
45609.1
50781.9
53900.1
55382.5
74648.6
73053.7
69657.8
63634.8
53209.5
43150.2
18352.7
2284.77
2424.15
26335.3
37871.6
45706.7
50888
53988
55463.5
73821.6
72153.9
68583.6
62364.2
51916.9
39352.7
7879.36
2299.17
7330.49
33303
43603.9
50205.6
54565.1
57095.4
58297.1
73771.9
72086.8
68456.7
62140.9
51607.1
38549.2
6233.05
2284.33
5525.7
32513.9
43130.6
49990.3
54405.2
56985.8
58203.4
73694.5
71985.9
68270.5
61825.3
51285.8
37473.2
6376.87
2262.19
2214.76
24887.2
42795
49701.9
54143.8
56787.9
58032.2
73626.2
71922
68143.8
61679.7
53421.8
36603
8094.33
2268.77
2226.64
24672.1
37644.6
49265.2
53786.3
56515.8
57802.8
73608
71927.1
68195.5
63158.1
53148.1
39267.9
17537.3
2280.17
2253.22
20271.7
34739.3
45458.4
53381.9
56233.8
57548.5
73647.5
71995.4
69092.8
63114.3
54676.8
40489.2
17767
2336.57
2270.66
19514.4
32394.5
44516.7
50542.2
55948.9
57311.6
73675.1
72024.3
69157.6
63187.2
55439.4
40552.2
17631.9
2315.65
6284.91
16052.4
29832.7
41674.1
49966
55695.3
57119.2
73726.2
72092.6
69253.2
64196.6
55531.9
40742
17728.2
2269.49
2296.19
2472.1
26283.7
39656
49620.4
55588.9
57051.7
73795.8
72168.1
69336
64285.6
55643.8
40859.3
17747.4
2279.82
2352.11
2410.22
25793.7
39518.1
49693.7
55689.6
57129
73867.5
72248.6
69393.5
63511.1
55753.5
40859.3
17817.8
2274.23
2296.21
14067.7
29070.9
41586.6
50164.3
55968.3
57348.2
73922.7
72279
68651.1
63665
55145.8
40884.9
17756.2
2305.5
2342.84
18852.7
31999.6
44863.4
53445.4
56306.1
57629.8
74004
72343.6
68666
62353.2
53924.9
37665.6
17156.9
2291.82
2334.02
21807.4
37474.6
49461.5
53946.6
56653.7
57931.7
74112
72447.8
68826.5
62539.1
52184.6
37907.8
8094.17
2272.06
2391.4
25126.8
43127
49990
54363.5
56971.1
58198.8
74212.4
72567.8
69021.3
62839.3
52255.3
39788.2
6137.63
2239.67
6292.35
33174.1
43503.1
50305.1
54641.2
57189.1
58389.6
74274.9
72649.5
69165.7
63125.2
52640.4
40948.6
6558.69
2256.91
3871.73
33369.4
43602.7
50490.9
54797.2
57307
58493.4
75827.4
74583.3
71962.2
67644.1
58965.5
49409.3
12050.7
2257.22
31048.3
49442.4
53671.8
58049
60735.6
62255.2
63001.9
75760.1
74487.6
71775
67211.9
58163.8
47247.6
2259.55
2276.93
30403.2
48618.4
53167.9
57755.3
60526.4
62119.7
62888.4
75657.6
74346.7
71511
66627.1
59095.2
44300.5
10634.4
2420.28
14948.7
37444.6
52922.4
57325
60193.8
61887.4
62687.8
75568.2
74233.1
71289.4
66311.9
58148.5
42588.9
14235.4
2271.84
5850.71
34889.4
46665.4
56846.2
59763.8
61578.5
62429.3
75537.4
74206.6
71298.4
66134.2
57274.3
42834.2
19620.6
2250.91
2244.7
27908.9
43068.7
52527
59416.4
61289.5
62165.6
75577.4
74298.4
71165.5
65944.9
57537.5
43134.1
19670.4
2302.29
6487.98
27258.7
40213.3
51679.8
56232.5
61068.8
61948.9
75607.6
74334.8
71191
66066.5
57937.2
43458.1
19542.3
2283.5
7802.02
22361.5
37148.3
48488
55727
60870.8
61776.7
75672.9
74423.4
71313.4
66445
58254
44325.2
20777.5
2275.61
2224.8
4290.4
32566.1
46131
55492.7
60802.7
61728.6
75749.5
74512.3
71425.3
66586.8
58484.6
44674.5
21205.2
2288.72
2276.57
2205.51
31262.3
45929.3
55573.2
60900.7
61810.8
75832
74601.4
71507.5
66576.4
58554.5
44262.5
19941.2
2256.89
3286.76
17606.3
35663.9
48433.1
55988.6
61147.8
62025.4
75896.3
74626.2
71876.5
66745
58438.2
44113
19385.4
2338.8
6176.27
26105.1
39776.8
52155.6
59568.8
61421.1
62292.3
75994.6
74728
71944.4
67246.1
58729.8
43777.3
19343.1
2328.89
2379.24
30653.3
46693.5
57207.1
60013.7
61774.6
62602
76125.4
74884
72205.3
67629
60584.5
45062.4
14514.3
2332.5
13019.2
37046.6
53647.6
57798
60504.5
62123.5
62892.1
76249.2
75040
72457.5
68176.8
59203.7
49200.7
3926.23
2367.39
33015.1
50021.9
53952.3
58272.8
60854.1
62371.3
63106.9
76330.5
75155.3
72677
68717.9
60509.8
51509.2
21888.2
2591.27
35676.6
50956
54331.6
58568.8
61050.6
62513.3
63228.3
79809.7
79343.1
78472.4
78191.1
76792.7
84995.8
122374
100972
85544.3
73772.3
68421.2
68601.8
68525.5
68661.9
68813.2
79728.4
79216.7
78235.1
77531.3
75545.1
82731.6
113986
87294.2
81559.7
72294.1
67806.1
68229.2
68286.9
68510.3
68686.9
79601.5
79025.4
77880.2
76133
74597.9
66600.5
60825.7
41634.3
45508.1
59947.2
66876.7
67355.9
67872.8
68249.9
68466.1
79485.1
78852.5
77503.4
75506.8
69544.4
61026.8
39774.9
9991
20701.6
55988.6
61177.6
66670.3
67358.7
67917.6
68188.7
79430.2
78769.6
77405.4
73364.7
68371.7
57254.4
32371.4
2592.16
12510.5
45851.1
57137.8
62859
67004.6
67635.4
67929.5
79455.6
78831.2
76125.7
73110.9
67048.5
55776.5
30137.7
2280.29
22208.1
44608.5
54212.2
62355.3
64215.9
67424.7
67761
79477.3
78865.7
76075.8
73281.7
66939.3
56742.5
32641.6
2381.58
19614.5
39982.2
52229.6
59730.7
64024.9
67302.7
67632
79543.9
78955.3
76213.1
72817.5
67538.2
59223.1
42905.8
2515.63
2192.03
26929.9
49702
58006.8
64087.3
67301.5
67619.2
79621
79043.7
76352.1
73023.4
67949.7
60332.1
45767.2
2330.71
2228.16
21391.4
49123.3
57996.1
64166.9
67378.6
67695.5
79712.6
79144.3
76479.1
73956.9
68000.3
59068.9
36563.6
2295.86
15640.4
37003.8
51673.9
59953.2
64303.8
67565.5
67879.9
79788
79198.4
78017.3
74070.5
68531.1
58344.8
33217
2311.05
24481.2
45046.2
54505.8
62940.5
67282.1
67830.9
68098.6
79906
79353.7
78200.1
76569.9
70469.8
62721.4
36369.2
2385.47
14617.7
51011.8
61577.3
67200.1
67703.6
68163.3
68394.1
80059.7
79568.5
78621.1
77296.1
76587.1
66141.7
52964.3
36616.9
47764.3
60461.1
67945.5
67992.6
68246.4
68519.4
68691.1
80200.5
79767.7
78941.4
78665.5
77240.9
86238
123748
104363
87601.7
74471.9
68911.6
68838.9
68661.7
68784.8
68916.8
80294.3
79914.5
79211.3
79323.9
78853.9
87732
125553
125881
90943.5
75627.1
69576.7
69229.1
68882.8
68939.6
69046.8
84663.8
85002.1
85677.2
88672.9
93108.8
98791.1
127311
130821
110788
91246.1
82535.9
78957.6
76396.6
75328.6
74913.3
84591.9
84882.3
85527
88270.8
92474
99453
129453
137676
111272
90920.1
82144.1
78629.6
76184.5
75178.9
74785.7
84466.4
84656.1
85244.9
86713.2
90937
93787.3
118981
149110
115980
89012.3
80957.8
77616.8
75766.9
74891.3
74551.3
84343.3
84464.1
84815.2
85881
85290.7
90621.2
109541
145047
109706
86435.1
78185.9
76513.7
75161.3
74521.4
74250.1
84268.9
84340.2
84525.3
82957.7
83668.4
83185.3
83193.5
87104.3
87674.7
78449.5
75038
74071
74676.8
74189.6
73963
84272
84245.6
82690.4
82557.4
81172.9
79738
75858.8
17736
70200.2
74240.9
72731.6
73635.9
72798.6
73904.9
73775.8
84270.3
84232.5
82640.9
82433.7
80177.5
79975.2
78613.1
13513.1
60224.7
72560.8
73300.9
73050.2
72946
73794.7
73659.5
84320.4
84292.9
82721.8
81455.2
80540.6
81477.7
87921.7
37861.8
55484.9
77900.2
77316.4
73866.8
73245.1
73834.2
73673.6
84385.3
84366.8
82860.1
81640.9
80960.3
82768
96665.9
63312.8
58136.5
80684.4
78542.4
74263
73354.1
73906.4
73745.6
84481.5
84499.7
83028.7
83038.2
81357.6
82909.7
91766.1
92925.9
69789.3
75142.8
74831.5
73707.6
73276.7
74082.6
73920.4
84560.8
84679.7
84997.3
83582.4
82854.9
83280.3
87142.8
82452.1
78524.2
76379.6
73949.8
74359.8
74993.8
74409.1
74149.3
84683
84864.2
85359.3
86710.4
86234.5
91550.2
99260.5
128280
99253.6
83268.1
78335.6
77029.5
75500.3
74764.5
74454.6
84831.4
85089.4
85833.1
87607.6
92472.6
95657.6
120874
156476
117239
90170.9
81671.2
78084.7
76087.3
75133.6
74756.9
84954.9
85303.9
86039.6
89033.4
93485.6
100570
129101
132555
109932
91641.8
82760.8
78999.7
76458.7
75404.4
74979.8
85029.7
85423.2
86192.2
89274.4
93855.7
99774
123003
121269
105745
91613.6
83061.5
79262.1
76641.3
75543.3
75101.6
89077.5
89806.9
90917
93766.2
98570.8
98475.8
105321
113868
104956
95429.3
90072.7
85867.1
82657.5
81143.8
80419.1
89063.7
89776.5
90995
94059.3
98955.5
100527
108570
118725
106410
96220.3
90232.2
85788.7
82550.1
81030
80311.8
89013.9
89641.7
91069.7
93717.6
98616.9
102210
110576
127629
110477
98783.3
89692.6
85204.9
82283.2
80764.4
80095
88951.3
89546
90904.5
93773.8
95759.5
104303
119254
139642
121525
99558.6
89323.4
84406
81760.8
80390.8
79791.2
88887.2
89428
90660.2
91339.1
95413.8
102284
120342
163324
128847
99992.4
87882.5
82858.7
81160.9
79981.3
79463.8
88853.1
89219.8
89202.4
90855.9
93214.3
100118
121101
175240
125860
96315.7
86150.6
82265
79932.5
79587.7
79210.6
88836.7
89165.1
89143.7
90596
92037.4
98836.5
115852
156602
107940
92200.3
87552.2
82830.1
80123.4
79476.8
79079.6
88869.9
89193.6
89154.4
89663.5
91781
97447.6
108648
76684.1
81015.6
116154
104920
86359.5
80665.2
79556
79107.5
88912.3
89252.9
89231.9
89740.3
91874.9
97343.9
106722
99762.9
56792.3
139641
109619
87033.3
80736.7
79630.4
79180.7
88990.3
89380.9
89359.1
90940.5
92354.7
98953.8
113011
130358
86353.5
94814.2
90307.2
83610.7
80465
79786.8
79361.8
89068.6
89626.6
90942.4
91465.8
93871.9
100955
121339
166271
120712
96511.4
87339.9
83105.5
81485.7
80192.5
79640
89147.7
89758.2
91146.1
94047.7
96098.9
105186
121535
156543
126405
99766.1
88883.7
84655.8
81982.3
80574.9
79957.3
89211.7
89853.5
91305.8
93945.6
98642.3
103422
113063
127971
110915
98622.8
89532.3
85284.9
82429.2
80911.6
80238
89237.2
89945.7
91112.1
94092.4
98452.3
99276.8
105091
109713
102917
95238.2
89699.6
85669.3
82601.8
81128.7
80423.1
89241.2
89951.3
91009.7
93679
97665.6
97377.3
100966
103990
100157
94281.9
89256.4
85625
82659.3
81216.8
80512.8
92299.1
92978.5
93849.4
95165.5
98477
98146.9
98872.3
103403
97818.5
94784.8
92351.9
89257
86808.1
85512.5
84783.9
92361.9
93058.3
94054.2
95774.2
99174.6
99621.2
100858
104303
99245.8
95808.4
92723
89376.6