/*--------------------------------*- C++ -*----------------------------------*\
| =========                 |                                                 |
| \\      /  F ield         | OpenFOAM: The Open Source CFD Toolbox           |
|  \\    /   O peration     | Version:  v2012                                 |
|   \\  /    A nd           | Website:  www.openfoam.com                      |
|    \\/     M anipulation  |                                                 |
\*---------------------------------------------------------------------------*/
FoamFile
{
    version     2.0;
    format      ascii;
    class       volScalarField;
    location    "0.044";
    object      p;
}
// * * * * * * * * * * * * * * * * * * * * * * * * * * * * * * * * * * * * * //

dimensions      [1 -1 -2 0 0 0 0];


internalField   nonuniform List<scalar> 
449343
(
101588
101725
101954
102172
102269
102010
101209
99788.7
97802.2
95462.7
93067
90895.9
89146.9
87934.5
87316.6
101570
101707
101935
102154
102250
101990
101188
99767.8
97782.7
95445.1
93050.9
90879.7
89129.9
87916.6
87298.2
101553
101690
101918
102136
102233
101968
101164
99744
97762.1
95428.8
93037.8
90866.9
89115.3
87900.2
87280.8
101536
101674
101903
102119
102215
101944
101137
99715.7
97738.3
95411.7
93026.9
90857
89103.1
87885.3
87264.3
101520
101658
101888
102103
102196
101917
101107
99685
97713
95394.5
93018
90849.5
89092.6
87871.4
87248.6
101504
101643
101872
102086
102176
101891
101077
99656.9
97690.5
95380.6
93010.6
90843
89082.6
87857.7
87232.8
101486
101625
101855
102069
102155
101868
101052
99631.6
97670.8
95368.3
93000.7
90835
89071.1
87842.9
87216.3
101466
101605
101836
102049
102135
101846
101026
99604.2
97644.6
95348.7
92984.7
90819.6
89054.4
87825
87197.9
101444
101583
101813
102027
102114
101827
101012
99592
97631.7
95329.6
92962.2
90796.3
89032.2
87803.8
87177.2
101420
101559
101789
102003
102094
101810
100997
99577.4
97612
95302.7
92932.9
90765.3
89004.6
87779.5
87154.4
101394
101533
101763
101978
102072
101795
100986
99565.7
97595
95277.4
92901.1
90732.5
88975.3
87753.7
87130.6
101369
101507
101736
101953
102050
101781
100976
99556.3
97580.3
95254.7
92870.5
90700.5
88946.2
87728
87106.7
101345
101482
101712
101930
102028
101765
100963
99544.5
97564.3
95232.1
92841.5
90670.6
88918.7
87703.1
87083.4
101322
101459
101688
101908
102005
101746
100947
99528.4
97545.1
95208.6
92814.9
90643.7
88893.5
87679.7
87061
101300
101438
101667
101887
101983
101727
100928
99509.7
97524.9
95186.6
92791.5
90620.4
88871
87658.2
87040
101436
101621
101953
102329
102606
102576
101912
100427
98185
95501.5
92801.9
90427.2
88564.4
87296
86655.9
101417
101603
101936
102311
102589
102556
101890
100406
98165.7
95485.5
92787.4
90411.8
88547.3
87277.6
86636.9
101400
101587
101920
102296
102573
102535
101866
100382
98146.9
95473.5
92778.8
90401.1
88532.9
87260.6
86618.6
101383
101571
101906
102283
102556
102508
101832
100345
98119.5
95459.6
92774.7
90394.9
88521.2
87244.7
86600.9
101368
101557
101894
102270
102540
102474
101795
100307
98075.4
95446.1
92775.9
90393
88511.7
87230
86583.7
101351
101542
101882
102259
102526
102448
101760
100275
98056.3
95436.4
92778.8
90393.5
88503.6
87215.6
86566.7
101334
101526
101867
102245
102504
102429
101735
100249
98037.6
95434.1
92791.5
90395.3
88494.1
87200.8
86549.5
101314
101507
101848
102227
102486
102407
101706
100173
98004.9
95412.3
92777.2
90381.5
88477.6
87183.3
86530.9
101292
101484
101825
102203
102463
102388
101695
100210
97999
95396.1
92753.5
90357
88455.4
87161.7
86510.4
101267
101458
101798
102176
102443
102367
101680
100195
97978.4
95359.3
92701.8
90316.4
88425.9
87137.5
86488.2
101241
101431
101768
102145
102416
102351
101674
100188
97958.2
95329.8
92659.9
90276.7
88394.7
87112.4
86465.7
101215
101404
101739
102117
102391
102345
101671
100186
97962.1
95303.4
92619
90238.9
88364.4
87087.3
86443.1
101191
101378
101712
102089
102367
102331
101664
100183
97949.6
95277.4
92583.2
90205.1
88336.2
87063.2
86420.8
101168
101354
101687
102064
102343
102312
101648
100167
97928.3
95249.4
92551.8
90175.9
88310.7
87040.4
86399.2
101146
101333
101665
102042
102321
102292
101630
100148
97907.9
95225.8
92526.6
90151.7
88288.2
87019.1
86378.6
101044
101341
101908
102653
103408
103961
103701
102056
99131.5
95546.5
92100.5
89262.7
87151.4
85762.7
85075.8
101025
101323
101891
102638
103393
103943
103680
102035
99113.8
95534.8
92089.7
89248.5
87133.9
85743.3
85055.6
101007
101307
101878
102628
103384
103927
103651
102013
99098
95535.6
92092.4
89241.7
87119
85724.2
85034.9
100990
101293
101868
102623
103378
103896
103599
101974
99045.3
95532.2
92110
89244.3
87107.1
85705.7
85013.9
100974
101280
101862
102622
103371
103846
103496
101858
98952.5
95549.9
92136.2
89253.1
87098.9
85688
84992.9
100958
101268
101858
102623
103378
103805
103443
101824
98934.2
95563.8
92178.1
89269.7
87092.6
85671.3
84972.2
100941
101253
101846
102618
103350
103794
103409
101791
98913.1
95568.8
92288.3
89292
87088.5
85655
84952.4
100921
101235
101829
102604
103341
103786
103413
101787
98882.3
95549.1
92273.6
89280.5
87074.1
85638.6
84933.7
100898
101210
101803
102576
103309
103752
103369
101753
98875.7
95531.8
92251.2
89254.4
87050.1
85615.9
84913.4
100873
101183
101773
102538
103294
103723
103362
101745
98858
95488.6
92103.2
89194.1
87015.8
85593.6
84893.9
100846
101152
101735
102495
103246
103723
103376
101740
98837.1
95435.6
92022.4
89138.5
86982.8
85570.5
84874.6
100820
101123
101699
102455
103211
103732
103437
101815
98889.8
95378.1
91956.2
89089.5
86950.9
85548
84855.3
100796
101096
101668
102419
103176
103721
103448
101814
98902.1
95341.2
91898.1
89046.5
86922.2
85526
84835.9
100773
101072
101640
102388
103145
103697
103437
101796
98877.1
95299.9
91855
89012.9
86896.7
85504.8
84816.3
100752
101050
101617
102364
103120
103675
103419
101776
98855
95271.6
91825.9
88987.1
86874.4
85484.3
84796.6
100282
100742
101662
103006
104635
106293
107192
105240
100815
95341.5
90630.1
87146.2
84736.7
83222.5
82494.4
100262
100723
101646
102994
104625
106281
107164
105221
100797
95336.5
90623.6
87131.6
84717
83200.6
82471.9
100242
100706
101635
102992
104630
106280
107138
105217
100812
95372.6
90641.6
87125.1
84697.7
83176.8
82446.5
100222
100691
101631
103006
104646
106282
106954
105205
100694
95464.5
90705.9
87131.3
84679.5
83151
82418.5
100203
100678
101632
103019
104674
106206
106145
104865
101470
95606.3
90791.1
87155.1
84663.5
83124
82389
100185
100669
101646
103079
104749
105387
106000
104811
101486
96856.2
90921.8
87192.5
84655
83097.2
82359.7
100165
100656
101645
103083
104066
105400
105945
104750
101435
96862.2
92226.5
87218
84638.4
83073.2
82332.9
100144
100639
101635
103074
104050
105400
105949
104632
101411
96856.4
92193.2
87207.9
84637.6
83061.7
82312.4
100121
100612
101601
103040
104023
105367
105906
104692
101395
96832.5
92179.6
87181.9
84600.7
83034.4
82294
100097
100582
101559
102992
104665
105311
105893
104703
101383
96801.2
90852.1
87120.4
84580.2
83020.2
82281.3
100072
100548
101502
102890
104546
106080
106001
104733
101380
95495.7
90682
87043.8
84549.1
83006.8
82270.1
100049
100518
101458
102835
104476
106115
106791
105047
100542
95315.3
90556.4
86979.1
84523.9
82992.6
82258.4
100027
100492
101421
102780
104420
106072
106934
105018
100618
95181.7
90450.3
86931.2
84500.6
82976.9
82245
100006
100468
101391
102740
104373
106031
106920
104982
100563
95104.2
90390.8
86896.3
84478.4
82959.6
82229.3
99985.9
100447
101367
102713
104343
106004
106907
104961
100539
95068.5
90356.6
86870.4
84458.1
82941.2
82211.6
98943.2
99583.4
100914
103021
105951
109639
113512
110795
103354
94136.9
87684.3
83669.5
81117.7
79599.8
78898.2
98919.9
99561.6
100896
103010
105947
109638
113488
110782
103359
94150.4
87680.4
83649.2
81092.1
79573.5
78871.8
98893.7
99539
100881
103013
105979
109679
113485
110785
103417
94207.8
87699.4
83628.9
81060.5
79540.5
78838.7
98865.7
99517.5
100878
103066
106136
109810
111130
110854
105019
94662.3
87856.6
83628.7
81021.7
79500
78798.8
98835.4
99493.9
100881
103106
106190
108263
111067
110746
105060
96945.7
87991.7
83618.3
80975.7
79450.8
78753.2
98810.1
99485.7
100922
103294
105296
108419
111051
110580
104966
97142.4
90229.7
83686.2
80926.6
79407.8
78708.3
98779.1
99455.4
100902
102675
105347
108499
110085
109865
105294
98143.1
90402.1
85555.1
80823.4
79346.4
78662.7
98759.5
99444.1
100948
102666
105373
108517
110083
109823
105296
98164.2
90459
85599.5
80931.3
79326.5
78644.8
98734.2
99410.6
100857
102627
105336
108486
110043
109814
105256
98145.5
90427.1
85572.3
80788.7
79309.5
78624.2
98719.1
99395
100832
103205
105209
108350
110088
109812
105235
97136.7
90248.7
83621.1
80854.8
79331.4
78629.3
98701.1
99360
100748
102973
106059
108179
110910
110489
104846
96955.2
87893.2
83514
80864.7
79333.5
78632.8
98687.3
99339.5
100700
102890
105962
109639
110931
110671
104950
94523.8
87715.1
83480.9
80867
79339.7
78635.4
98673.2
99319.1
100662
102795
105763
109466
113277
110610
103228
94024.3
87513.3
83436.7
80862
79336.9
78632.3
98658.1
99300.3
100635
102751
105690
109383
113239
110549
103128
93923.7
87450.9
83414
80850.9
79327.5
78623.1
98641.2
99282
100613
102722
105654
109345
113223
110518
103082
93867.3
87412.6
83392.7
80835.3
79312.7
78608.5
96768
97542.3
99210.3
102054
106535
113549
119229
124683
110961
89636.2
82064.8
78285.8
76035.9
74815.7
74287.7
96738.6
97514.1
99185.4
102038
106538
113553
119216
124664
110945
89632.6
82042.9
78247.6
76000.2
74783.3
74256.8
96699.6
97477.1
99153.9
102015
106546
113602
119213
124646
110913
89592.9
81984.9
78175.1
75943.8
74736.7
74213.9
96655.3
97440.9
99138.4
102063
106952
111397
119307
124700
110855
94066.9
82043.6
78026.4
75860
74675.2
74158.4
96598.7
97381.7
99088.9
102116
105677
111668
119553
122220
112190
94729.5
85314.8
77868.3
75696
74581.1
74089.6
96555.1
97334.3
99125.5
101660
105763
110677
117738
121082
112114
96998.6
85425.7
80295.6
75537.1
74473.4
74018
96502.8
97271.9
99091.3
101679
105881
110696
116782
121025
112565
97936.4
87157.7
80318.2
75410.2
74375
73950.6
96468.7
97224.1
99067.6
101718
105198
110153
116777
120972
112511
97962.9
87138.7
80315.2
77395.5
74302.7
73919.9
96456.9
97225.7
99044
101664
105168
110620
116755
120955
112502
97960.3
87130.8
80267.4
75382
74338.5
73910.9
96459.5
97239
99031.6
101552
105784
110636
116696
120976
112533
97922.8
87164
80291.2
75473.5
74398.1
73937.2
96459.6
97242.8
98950.1
101976
105542
111584
117523
121977
112035
96797.4
85355.2
77777.7
75588.4
74462
73964.9
96469.7
97255.7
98953.6
101880
106769
111264
119166
124533
110709
94095.1
81915
77885.1
75705
74510.1
73988.1
96471.8
97250.2
98928.2
101790
106322
113381
119005
124428
110730
89426
81806.6
77984
75741.6
74525.7
73998.1
96468.8
97245.1
98917.5
101771
106273
113292
118954
124417
110728
89418.7
81818.8
78012
75753.1
74527.8
73996.8
96457.9
97233.1
98902.5
101747
106231
113248
118935
124400
110696
89372.7
81795
78006
75746.1
74518
73985.7
93523.1
94286.7
95979.5
99032.7
104179
111180
127918
157958
115253
82182.6
71764.1
70236.6
69302.1
68925.1
68789.3
93485
94248.4
95941.1
98993.9
104151
111155
127879
157922
115176
82132.6
71691
70168.9
69256.3
68888
68755.1
93425.9
94183
95866.2
98896
104017
111105
127780
157861
115145
82088.2
71548.4
70046.1
69177.1
68828.1
68704.9
93351.5
94104.6
95783.5
98659.6
103341
111451
127748
157711
114879
82101.1
74935.8
69655.4
69042.8
68740.2
68636.9
93251.1
93977.6
95563.1
98675.5
103339
110520
124740
157522
115664
85887.1
74538.9
71868.7
68737
68609.4
68547.7
93152
93802.4
95993.2
98710.1
103038
110470
123277
152416
120323
87787
76740.9
71666.3
70462.9
68437.9
68454.6
93080.9
93725.3
95956.6
98675.8
103036
109988
123146
152285
120236
87771.8
77995.8
73217.9
70384.6
68378.6
68394.1
93023.4
93667.3
95985.3
98667.8
103003
109930
123078
152213
120247
87824.1
78015.9
73207.6
70374.8
68363.6
68343.6
93035.2
93680
95917.6
98663.5
103001
109909
123055
152200
120251
87841.4
78033.9
73213.4
70326
68341.5
68351.9
93050.8
93700.1
95903.4
98588.2
102980
109917
123081
152226
120234
87795.3
78010
73220.6
70380.1
68360.2
68368.6
93103.3
93830.6
95416.8
98528.8
103193
110383
123177
152322
120294
87779.3
76854.4
71698.1
68631.3
68484.1
68413.4
93156.8
93910.8
95588.9
98467.3
103041
111191
124571
157410
114846
86116.9
74711.5
69520.4
68883.6
68564.4
68452.7
93187.8
93945.8
95632
98661.8
103782
110864
127541
157559
114957
81979.2
71379.6
69855.3
68965.8
68602.3
68471.5
93204.5
93969.3
95663.3
98718
103874
110887
127578
157640
115005
81962.6
71474
69928
68996.7
68614.9
68475
93202
93967.1
95662.5
98717.4
103863
110863
127595
157649
114963
81912
71494.7
69949
68997.9
68608.4
68465.9
89130.1
89630.1
90725.6
92688.3
95830.9
102712
110442
108494
23426.9
52241.7
57017.9
59699.9
61338.7
62359.6
62816.3
89083.9
89581.3
90672.9
92625.9
95777.7
102657
110395
108391
22805.5
52146.5
56911.2
59636.2
61300.5
62325.2
62784
89006
89491
90571.4
92525.7
95630.9
102536
110284
108293
22958.7
52130.8
56785.4
59590.5
61251.7
62276.9
62740.5
88900.7
89356.2
90412.5
92210.4
96832.2
102118
110010
108181
23171.5
52201.9
58212.2
59620.6
61201.2
62212.8
62687.7
88758.9
89177.8
90137.9
93276.9
96555.1
102454
110702
108002
23276.7
55403
59729.6
60933.9
61172
62154.7
62624.8
88599.8
88987.5
91235.7
93116
96950
102618
110473
107698
23031.1
55689.8
60682.6
61054.1
62377
62156.2
62569.1
88518
88894.7
91181.8
92997.5
97139.5
102510
110329
107544
23065.3
55935.8
60961.6
62083.1
62354.7
62170.3
62551
88465.1
88826.5
91116.9
93582.2
97100.8
102444
110248
107419
23259.8
56341.4
61239.9
62704.7
62409.8
62187.2
62521.7
88466.7
88844
91093.8
93551.2
97078
102420
110223
107404
23320.3
56493.2
61319.6
62728.7
62359.1
62130.8
62503.2
88492.9
88881.9
91122.1
92937.1
97064.5
102440
110255
107455
23209.1
56151.2
61094
62105
62312.1
62068.8
62470.3
88600.2
89019.2
89979.9
93051.7
96847.8
102500
110353
107559
23167.1
55800.5
60728.4
60895.7
61055.8
62012.9
62470.8
88692.9
89150.5
90210.2
92006.1
96532.9
101605
109495
107845
23271.4
53933.4
58022.7
59490.6
61028.1
62014.7
62477.6
88753.9
89240.6
90324.5
92284.8
95387
102087
109860
107910
23123
52060.8
56635.9
59392.7
61020.1
62023.4
62476.3
88788.6
89288.5
90384.1
92340.5
95492.7
102335
110034
107989
23037.1
52008.7
56693.2
59381.5
61016.7
62021.4
62470
88794.2
89296.9
90397
92363.6
95507.8
102378
110088
108044
22698.4
51965.6
56745.4
59396
61008.4
62010.4
62457.5
83836.4
83833
83797.8
83728.6
83940.5
88230.8
92232
105544
4120.93
31356.8
43295.8
49643
53738.9
56107.9
57158.8
83787.5
83781.2
83744.2
83671.8
83901
88172.1
92177.8
105338
2363.18
31336.1
43210.3
49619.5
53718.7
56082
57132.4
83706.8
83692.3
83650.8
83615.4
83830.5
88050.3
92061.6
105229
2321.76
31321.3
43215.1
49651.7
53715.8
56064.3
57106.8
83600.5
83557.6
83521.1
83633.8
86518.2
87945.5
91818.5
105079
4910.81
31477.8
43587.5
49883.2
53771.2
56068.6
57092.7
83465.3
83395.5
83399.1
85532.2
86493.3
89710.9
92825
105035
2304.25
31337.2
44273.3
50763
53916.2
56120.8
57095
83319
83304.8
84945.5
85393.5
87665.3
90434.3
92630.8
104581
2300.32
31757.1
44781.6
50892.9
54705.1
56215.3
57115.1
83245.3
83232.1
84833.1
85303.2
88242.9
90289.5
92497.9
104447
2303.26
32485.1
45299.4
51480.6
54772.9
56250.3
57121.7
83192.5
83169.2
84747.7
86275.7
88153.8
90208.2
92423.7
104333
2315.24
34531.4
46051.9
51938.8
54824.7
56272.4
57100.4
83186.5
83172.8
84722.8
86241
88131
90183.6
92396
104324
11919.3
35875.4
46337.5
51999
54800.1
56207.8
57064
83201.2
83189
84757.1
85258.3
88158.8
90217.1
92417.3
104341
2634.01
33530.6
45712.2
51559
54711.3
56112.5
56993
83290.7
83221.8
83232.1
85293.4
87582.7
90326.2
92499.4
104420
2310.1
32166.7
44968.2
50776.4
53783.8
55947.6
56905.4
83374.1
83333.9
83302.1
83423.5
86345.4
87863.3
91737.7
104830
2303.37
31552.4
43758.7
49725.1
53563
55828.5
56837.8
83434.4
83423.3
83388
83357.8
83579.2
87750.5
91668.5
104807
5615.52
31299.2
43052.4
49423.1
53442.4
55762.6
56791.6
83471.4
83470
83442.2
83380.4
83615.9
87840
91810.1
104931
2463.09
31181.5
42973.4
49332.7
53390.9
55727.1
56764.1
83479.7
83481.6
83456.3
83397.9
83616.7
87894.6
91873.1
105000
2327.24
31161
43009.1
49308
53364.1
55706.6
56744.2
78313.7
77751.7
76573.3
74674.9
74514.1
73815.9
76615.6
2303.87
23577.8
35855.6
43264.5
48368
51407.7
52811.4
78266.4
77702.6
76525.1
74631.9
74460.1
73757.2
76553
2293.29
23536.1
35805.6
43260.9
48347.8
51381.3
52783.4
78194.7
77631
76445
74558.6
74434.7
73707.7
76449.3
2297.1
23340
35884.2
43283.4
48341.7
51366
52756.2
78113
77543.4
76350
74650.7
74694.1
73596.5
76252.6
2295.25
23382
35132.4
43487.5
48385.1
51378.1
52742.5
78025.6
77449.3
76381.6
76579.6
75196
75582.3
76852.3
2290.76
21466.6
34828.7
43384.1
48482
51432.7
52748.5
77934.1
77471.9
77819.9
76739.3
76483.8
76453
76697.7
2286.99
21775.8
34895
43519
48628.9
51440.3
52773.8
77878.4
77433.7
77693.5
76753.3
77196.2
76393.3
76603.1
2285.73
22855.3
35554.4
43644.4
48718.5
51428.1
52753.4
77824.4
77382.5
77625.1
77610.4
77216.5
76340.3
76550.3
2289.03
26284.3
36603.8
43921.7
48725.5
51419.1
52714.7
77808.9
77364.6
77593.3
77591.7
77191.2
76312.9
76520
44948.5
29820.7
37061.3
43994.4
48696.5
51357.4
52673.1
77799
77340.4
77620.8
76683.7
77115.9
76310.8
76512.5
44152.9
25104
36129
43697.6
48626
51288.6
52607.4
77827.1
77251.5
76189
76364.6
76322.3
76312.5
76548.7
2308.13
22364.3
35126
43370.6
48273.1
51195
52497.2
77858.6
77293.6
76107.6
74425.6
74571.6
73479.6
75745.7
2282.9
22141.7
35156.1
43239.9
48097.7
51063
52414.4
77892.3
77335.3
76163.1
74294.5
74194.5
73407.9
76074.8
2298.29
23251.3
35659
42984.6
47991.7
50985.6
52361.4
77919.9
77364.9
76206
74338.9
74209.4
73470.1
76208
2299.93
23295.3
35526
42912
47946.3
50946.9
52333
77926.4
77374.4
76216.3
74345.3
74176
73490.8
76264.9
2292.78
23382.8
35541
42874.3
47922.1
50927
52313.8
73444.3
72368.7
70106
66101.9
64084.3
57108.8
53268.3
3843.91
2296.4
21874.5
33346.2
40835.8
45949.8
49033.4
50502.1
73394.3
72315.9
70048.6
66039.8
64017.8
57018
53102.3
2615.46
2295.86
21721.6
33258.1
40805.1
45900.5
48987.9
50455.9
73318.7
72240.9
69953.6
65905.8
63927.4
56909.4
53015.6
2631.71
2296.34
18896.2
33349.4
40766.1
45843.1
48929.4
50390.5
73236.3
72162
69800.1
65785.2
63805.4
56750.9
53030.3
2375.26
2303.53
19151.8
31181.8
40745.4
45780.6
48870.4
50317.2
73164.6
72074.6
69675.9
68503.3
63554.3
59400.3
54776.8
2535.37
2335.08
17535.6
30165.6
39477
45708.8
48829.7
50244.8
73092.9
72024.5
71437.9
68322.8
65285.4
60545.8
54686.2
2535.43
2499.29
17915.6
29840.3
39443.4
45020
48726.1
50188
73027.2
71953.3
71351.2
68131
66000.4
60424.1
54641.5
2315.71
2292.67
18845.2
30299.8
38955.4
45007.5
48633.7
50104.8
72964.2
71897.9
71270.5
69371
65929.4
60354.4
54641.9
6165.97
2238.44
21031.9
30970.9
38874.9
44968.8
48568.3
50033.4
72942.7
71869.7
71245.2
69361.1
65902.3
60328.5
54617.9
26478.4
2173.78
21461.4
31134.7
38884
44921.5
48512.9
49985.5
72931.1
71866.6
71282
68087.9
65940.2
60351.7
54565.8
2376.63
2175.14
19161
30457.5
38885.6
44866.2
48489.7
49950.2
72930.2
71842.1
69451.9
68254.2
65173.5
60411.4
54535
2249.67
2298
17721.9
29772.1
39206.7
45370.7
48487.1
49898.4
72939.4
71873.2
69527
65542.4
63476
56477.8
52719.4
2302.87
2287.14
17926.7
30909.1
40350.1
45364.3
48440.3
49880.6
72971
71904.1
69641
65631.9
63601.6
56610.3
52743.6
3188.94
2301.81
19329.7
33023.8
40351.6
45373.6
48432.7
49880.9
73001.1
71937.4
69701.5
65745.5
63739.3
56748.9
52817.6
2293.38
2295.32
21497.7
32917.3
40359.4
45388.5
48438.4
49888.7
73010.2
71951.5
69724.7
65780.6
63784.3
56832.1
52890
2330.11
2295.59
21580.7
32983.5
40358
45398.2
48438.9
49887.2
70021.8
68547.8
65410.8
59800.9
50002.1
40995.1
17215.5
2314.87
2305.15
23677.5
34512.8
41496.4
46232.5
49053.9
50399.8
69959.1
68480.1
65325.6
59702.2
49881.1
40828.8
17358.6
2285.53
2301.68
23345
34376.9
41397.8
46135.7
48973
50321.8
69859.5
68377.1
65198.8
59564.4
49717.1
40487.8
17330
2298.77
2302.35
19304.1
34152
41275.6
45994.2
48841.4
50194.4
69736.8
68262.3
64994.8
59351.4
53924.5
40166.3
17597
2289.04
2303.2
18969
30724.1
41024.4
45788.5
48667.4
50029.5
69621.8
68138.8
64822.1
61787
53724.2
43660.1
23767.2
2302.35
2300.19
16390.1
29028.4
38690.5
45541
48489.1
49846.4
69516.8
67996.7
66446.5
61578.9
55671
45200.8
24172.6
2199.8
2294.58
16418.2
28192
38388.5
44012.2
48278.1
49676.7
69411.8
67866.9
66368.5
61345.1
56428
44952.2
24002
2300.51
2278.26
16633.8
28193.8
37252.6
43823
48094.6
49517.6
69330.2
67787.9
66277
62653.9
56228.3
44782.2
23980.2
2330.16
2306.3
16829.9
28223
36729.2
43674.8
47972.3
49404.3
69305.8
67761
66247.7
62629.6
56196.9
44755.8
23865.5
2300.91
2188.61
16710.3
28127.2
36646.3
43611.3
47915.5
49347
69314.9
67793.7
66287.9
61286.7
56346.5
44919.2
24173.6
2288.63
2298.68
16283.4
27921.7
37008.8
43628.6
47936.6
49345.9
69332.2
67850.7
64539.9
61564.2
55548.1
45107.7
24129
2259.74
2240.83
16040.2
27796.1
38042.5
45030.4
48007.9
49374.7
69375.8
67910.5
64661.7
59058.6
53641.5
39993.4
18948.9
2273.93
2281.33
16862.8
30122
40428.6
45197.1
48083.5
49448.6
69442.4
67974.1
64830.4
59259.4
49523.2
40265.2
17398.8
2277.03
4777.18
19420.1
33693.1
40689.2
45359.9
48186.7
49530.9
69494.2
68035.8
64928.8
59393
49713
40633.2
17222.6
2291.76
2302.01
23116.4
33970.4
40814.5
45471.5
48266.7
49597.9
69515.7
68066.3
64986.9
59484
49864
40926.8
17357.9
2287.2
2301.2
23384.8
34131
40899.6
45537
48304.9
49627.9
68664.2
67128
63839.7
58151.7
48116.7
37771.8
4796.8
2300.75
4401.88
29613.8
38905.4
44946.6
48901.4
51175
52256.4
68582.2
67038.9
63719.8
57973.4
48013.2
37231.7
5465.12
2296.27
3079.68
29303.1
38654.8
44753.9
48745
51049.3
52140.2
68450.3
66900.6
63545
57745.6
48357.7
35947.3
7952
2294.9
2305.54
22597.1
38425.6
44534
48490.4
50836
51942.7
68281.7
66740
63335.2
57563
50348
35136.4
8698.21
2289.59
2298.81
22015.9
33948.7
44101.1
48130.2
50541.2
51679.1
68115.7
66578.1
63197
58899.4
49909.4
37316.6
17104.8
2294.68
2293.77
18104.8
31394.4
40957.4
47722
50222.9
51382.8
67962.2
66411.4
64021.6
58579.4
51009
38011.4
16692.6
2321.29
2292.27
17700.7
29832.9
40350.4
45566.6
49918.8
51101.7
67815
66237.6
63882.3
58306.3
51330.5
37415.9
15830.8
2299.99
2306.94
17318.5
29336.5
38574.4
45175.9
49643.8
50861.3
67713.1
66128.6
63779.3
59141.1
51017.6
36982.1
15555.6
2317.77
2332.09
15057.7
28691.2
37606.5
44914.4
49461.7
50699.8
67678.8
66097.9
63744.1
59094.7
50968.3
36918.9
14369.2
2209.23
2302.49
14578.6
28376.7
37429.1
44824.8
49400.5
50632
67702.7
66144
63753.5
58219.9
51194.9
37400.7
16169.3
2292.01
2305.17
16111.2
28632.9
38131.5
44913.6
49455
50660.9
67746.9
66205.4
62813.2
58515.1
50834.3
37931.6
17002.7
2232.35
2294.8
16930.7
29062.3
39889.1
47016.3
49574.9
50759.1
67827.7
66291.4
62898
57171.1
49843.6
35249.3
16452.9
2257.16
2287.45
18576.7
32776.6
43241.2
47320.7
49766.6
50918.9
67931.3
66394.3
63076.9
57368.5
48157.8
35612
10288.8
2307.34
4210.61
22195.7
37690.6
43701.7
47638.4
49978.8
51085.2
68010.5
66489.2
63225.7
57618.8
47815.4
37558.8
6252.15
2297.02
3277.24
29214.4
38104.5
43971.2
47875.6
50139.9
51217.1
68050
66541.9
63326
57822
48042.2
38444.6
6052.44
2325.29
4419.01
29714.6
38440.4
44177.6
48012.1
50225
51284.2
69611.8
68466.9
66036.1
62150.5
53843.7
44311.6
9959.49
2315.19
28931.3
44198.2
47418.7
51329
53677.8
55007.2
55667.5
69509.1
68349.6
65874.7
61845
53437.1
43837.9
7622.64
2315.26
28198.3
43674.2
46992.9
51028.2
53455.6
54833.9
55511.6
69343.6
68167.8
65646.2
61380.7
55027.8
41835.9
13711.1
2338.33
12841.2
33844.7
46872.5
50607.6
53078.3
54541.1
55242.4
69132.3
67935.1
65328.8
61019.9
54125.1
40805
15172.1
2328.45
2540.22
31329.3
41429.7
49971.8
52549.3
54132.3
54880.4
68917.7
67696.6
65077.8
60767
53121.4
40673
19936.9
2235.09
2301.54
24633.4
37998.4
46233.1
52007.2
53677
54473
68714.8
67487.8
64908.2
60150.1
52749.8
40045.1
19449.4
2297.35
2300.96
22878.6
35462.6
45318.2
49391.9
53279.1
54084.1
68525.4
67265.2
64615.2
59711
52338.1
38829.9
16390.5
2285.46
2406.84
21298.4
34526.8
43022.6
48847.2
52922.1
53758.9
68400.1
67124.5
64446.6
59828.5
51856.6
37973.6
14919.5
2326.2
2283.42
20776.2
33668.7
41714.5
48491.5
52686.1
53546.1
68350.9
67080.3
64394.8
59753.1
51757.6
37842.1
13699.6
2326.94
2262.37
16799.8
33013.2
41458.1
48373
52610.3
53464.7
68380.5
67134.8
64430.4
59571.4
52059.9
38652.8
17698.2
4509.82
2322.03
19017.9
33340.5
42381.6
48501.8
52681.2
53516.3
68446.1
67208.4
64549
59972.6
52436.3
39762.6
19960
2234.2
2300.58
21393.8
34199.3
44705
51055.3
52825.9
53667.9
68555
67349.5
64728.9
60418.5
53079.8
40263.3
18860.5
7608.24
2298.72
25260.4
39477
48736.5
51457.5
53121.4
53903
68687
67512.7
65009.8
60820.7
54684.3
41396.2
14732.7
2367.65
10102.3
31792.7
45715.1
49432.7
51938.8
53430.4
54148.5
68790.4
67642.2
65208.1
61310.3
53231.5
44043.8
12446.5
2321.64
30274.3
43478.9
46172.5
49948.6
52309.9
53667.8
54344.7
68846.6
67720.9
65355.8
61659.9
53910.4
45752.2
18815.6
11000.6
33312.6
44883.5
46860.1
50317.5
52528.1
53802.9
54450
72421.4
71996.8
71148.3
70909.6
69758.9
75496.2
111135
86044.3
76884.3
64863.7
60143.9
60165.9
59932.6
59991.9
60103.3
72300.4
71843.8
70934.8
70434.1
68895
73986.6
107537
71700.2
73951.1
63659.9
59483
59734.4
59643.9
59772.5
59909.1
72101.9
71600.6
70633.3
69231.5
68519.6
61988.8
63882.6
53482.7
50000.3
54479.2
58734.5
58906.2
59144.9
59397.6
59567.8
71846.1
71285.5
70130.4
68528
64100.5
58646.5
50579.1
15150
27564.9
51353.3
53858.6
57878
58439.9
58878.4
59107
71583
70957.4
69709.5
66480
62655.4
54570.5
36122.8
2295.36
18987.7
41525.5
49646.4
54257.5
57716
58283.5
58588.4
71336.2
70678.1
68469.8
65673.3
60586.1
51609.1
32424.6
2257.58
15069.8
36141
45885.9
53063.7
55051.7
57745.8
58096.9
71109.4
70413.4
68050.4
65173.7
59395.4
49679.7
28121.7
2283.73
2269.96
31915.9
43730.9
50276.1
54382.2
57301.8
57687.5
70960
70245.4
67837.7
64470.6
58820.5
48612.2
25525.9
2355.53
2233.33
27025.3
42033.8
48654
53988.1
57022.3
57426.6
70890.6
70177.5
67756.6
64352.5
58631.7
48291.5
25255.9
2287.44
2227.98
21529.4
41661
48415.5
53837.3
56922.4
57326.3
70915.3
70226.6
67805.3
64892
58864.6
48722.9
26595.6
2293.34
2367.79
23300.5
42561.8
49524.7
53948
57004
57389
70990.9
70326.9
68982
65285.9
59988.8
50547.7
29456
2332.71
10889
32926.4
44046.5
52188.3
56495.2
57204
57574.5
71121.4
70527.9
69307.4
67614.3
62364.3
56653.7
37917.2
2273.31
17677
41952.8
50869.5
56221.5
57011.3
57589.6
57878
71277.5
70751.6
69748.9
68331.3
67690.5
59453.9
55083
50000.9
46128.1
51258.4
56958.3
57271.4
57648.9
57986.9
58200.9
71397.9
70922.3
69994.9
69519.8
68223.9
73954.3
109003
90822.7
75443.2
62957.2
58105.4
58204.3
58138.6
58297.8
58459.9
71464.1
71023.9
70174.4
69959.8
68900.8
75667.7
106392
101137
80087.2
65114.2
59089.9
58740.9
58435.7
58479.6
58601.7
76076.3
76385.7
76951.7
79581.2
84320.3
88267
117390
122378
98963.1
79998.3
72389.7
68742.6
66278.8
65252.6
64842.8
75956.8
76223.8
76765.8
79253
83789.9
88386.9
119760
129119
99627
79416.5
71835.2
68307.4
65966.2
65001.5
64619.1
75750.9
75923.3
76484.4
77815.5
81929.6
85186.9
106818
131215
101628
78790.1
70401.5
67261.9
65398.5
64545.6
64213.6
75474.7
75565.8
75868.2
76835
77053.4
83042.9
101466
130610
96048.3
75555.1
67911.3
65865.4
64558.9
63917.5
63657.4
75186.2
75193.2
75287
74105.2
74926.4
76334
85574.8
129441
85075.5
68822.5
64535.9
63329.5
63617.7
63184.2
63021.5
74919.6
74798.9
73545.3
73212
72030.8
71635.5
76698.5
104147
65882.4
61639.9
60780.6
62048.1
61557
62454.5
62413.3
74674.3
74505.3
73124.4
72637
70326.1
69538.5
65633.3
9525.35
2328.79
47393.8
57159.9
59681.4
60858.6
61915.4
61913.8
74506.6
74321
72888.9
71404.1
69941.1
69645.7
69112.7
9740.41
2670.1
28001.9
54055.4
57955.2
60430.7
61620.9
61610.6
74412.1
74223.9
72774.1
71253.7
69694
69141.4
68798.4
35124.1
2107.05
36434
54090.6
57690.3
60261.9
61490.2
61483.5
74413.9
74254.3
72789.9
72224.2
69626.6
68168.7
59751.4
12875.1
2371.98
46851.8
55999.6
58820.6
60318.5
61575.5
61553.6
74474.6
74423.9
74382.3
72639
71120
69993.7
71970.4
81111.1
47677.5
56474.6
58165.2
60802.1
62139.1
61869.8
61781.9
74600.3
74626.9
74795.3
75542.7
74665.9
78865
87288.2
121376
80411.1
66550.3
63928.9
63739.3
62771
62330
62158.5
74751.1
74857.8
75285.6
76407
80075.3
82486.8
101887
128124
95261.5
74394.8
67723.1
65050.5
63501.2
62809.8
62558.2
74856.5
75049
75439.7
77690.9
81444.1
85463.2
111499
109516
91016
76015.5
69117.1
66100.3
64017.9
63184.5
62870.4
74905.4
75124.7
75515.2
77792.8
80948.6
85011.1
102788
96889.5
91442.1
76515.8
69705.4
66571.8
64315
63389.8
63038
79383
80009.3
80986.4
83050.8
88069
86777.8
92596.4
99099.8
90244.5
83039.4
78212.4
74088.3
71202.6
69786.1
69106.1
79307.2
79913
80936.4
83215.1
88254.2
87928.3
94910.6
103811
91361.9
83330.6
78156
73851.9
70944
69538.1
68872.4
79164.8
79676.8
80869.9
82886.5
86833.8
89577.2
95034.2
105870
91929
84131.4
77031.8
73104
70422.6
69046.9
68431.6
78943
79403
80449.4
82632.7
84222.8
90022.7
99398.3
113247
97812.2
83981
76468.2
72010.5
69604.2
68346.7
67803.7
78683.7
79073.2
79979.8
80510.7
83425.9
88034.4
99010.8
115365
101325
85039.9
75450.2
70641.3
68595
67484.5
67049.5
78421
78652.8
78567.2
79734.6
81367.8
86018.6
98688.4
122444
107520
85473.4
74447.6
69617.5
67179.7
66533.8
66267.3
78185.3
78367.8
78217.7
79194.4
80150.7
85025.2
96087.3
123998
125337
86493.6
73404
68495
66460
65849.3
65634.2
78012.3
78174.2
77957.3
78223.8
79787.8
85702.2
117730
1001.57
124149
83445.7
72111.4
67776.6
66119
65514.6
65254.6
77891.3
78051.7
77813.4
78042.6
79582.5
85338.5
105303
2207.18
119361
81465.3
71263.3
67471.5
65953.8
65340.6
65095.8
77851.6
78036.6
77772.6
78675.9
79526.7
84716.9
98969.8
138144
115753
80804.6
70999.8
67385.9
65819.1
65421.7
65206.7
77879
78197
78921.2
79064.7
80389.1
85007.1
98608.8
126860
98429.7
79665.5
71173.7
67875
66718.1
65865.2
65550.4
77950.9
78321.6
79176.8
81080.3
82076
87422.2
96299.5
110251
95660
80020.3
72466.1
69432
67433.6
66445.8
66030.4
78026.5
78438.6
79409.3
81112.4
84275.7
86771.5
92122.7
100516
87384.5
79795
73713.5
70416.3
68151.6
67006.5
66507.8
78049.6
78544.6
79273.7
81356
85044.8
83849.6
89363.3
88265.2
84587.8
78387.4
74417.8
71084.8
68580.2
67408.8
66852.7
78037.8
78527
79137.7
81097.9
83720.8
82665.8
86065.7
87798.8
85582.3
77740
74481.3
71299
68789.9
67603.9
67027.9
81698.8
82202.7
82987.5
83401.8
86398.4
85104.4
84462.4
87032.3
82732
81644
79083.4
76331.1
74287.9
73090.3
72442
81688.1
82210.7
83039.7
83827.2
86948.9
86096.4