/*--------------------------------*- C++ -*----------------------------------*\
| =========                 |                                                 |
| \\      /  F ield         | OpenFOAM: The Open Source CFD Toolbox           |
|  \\    /   O peration     | Version:  v2012                                 |
|   \\  /    A nd           | Website:  www.openfoam.com                      |
|    \\/     M anipulation  |                                                 |
\*---------------------------------------------------------------------------*/
FoamFile
{
    version     2.0;
    format      ascii;
    class       volScalarField;
    location    "0.044";
    object      p_rgh;
}
// * * * * * * * * * * * * * * * * * * * * * * * * * * * * * * * * * * * * * //

dimensions      [1 -1 -2 0 0 0 0];


internalField   nonuniform List<scalar> 
449343
(
101451
101588
101816
102035
102131
101873
101072
99651.4
97664.9
95325.3
92929.7
90758.6
89009.6
87797.2
87179.3
101452
101589
101818
102036
102133
101872
101070
99650.1
97665
95327.4
92933.1
90762
89012.1
87798.9
87180.4
101454
101592
101820
102038
102135
101870
101066
99645.9
97664
95330.7
92939.7
90768.8
89017.2
87802.1
87182.7
101458
101595
101824
102040
102136
101865
101059
99637.3
97659.8
95333.2
92948.5
90778.6
89024.6
87806.8
87185.9
101461
101600
101829
102044
102137
101858
101048
99626.1
97654.1
95335.7
92959.1
90790.6
89033.7
87812.6
87189.7
101464
101603
101833
102047
102137
101852
101038
99617.6
97651.3
95341.3
92971.3
90803.8
89043.3
87818.5
87193.6
101466
101606
101835
102049
102136
101848
101032
99612
97651.2
95348.6
92981.1
90815.4
89051.4
87823.3
87196.7
101466
101605
101836
102049
102135
101846
101026
99604.2
97644.6
95348.7
92984.7
90819.6
89054.4
87825
87197.9
101463
101603
101833
102047
102134
101847
101031
99611.6
97651.4
95349.3
92981.8
90816
89051.8
87823.4
87196.8
101459
101598
101828
102042
102133
101849
101036
99616.7
97651.2
95341.9
92972.2
90804.5
89043.9
87818.7
87193.6
101453
101592
101821
102037
102131
101854
101045
99624.5
97653.8
95336.2
92960
90791.4
89034.2
87812.6
87189.5
101448
101586
101815
102032
102129
101859
101054
99634.8
97658.8
95333.2
92948.9
90779
89024.7
87806.5
87185.2
101443
101580
101810
102028
102126
101863
101061
99642.6
97662.4
95330.2
92939.6
90768.7
89016.8
87801.2
87181.5
101439
101577
101806
102026
102123
101864
101064
99646.2
97662.8
95326.3
92932.6
90761.4
89011.2
87797.5
87178.7
101437
101575
101804
102024
102121
101864
101065
99647.1
97662.2
95323.9
92928.9
90757.7
89008.4
87795.5
87177.3
101298
101484
101816
102191
102469
102439
101774
100290
98047.6
95364.2
92664.6
90289.9
88427.1
87158.7
86518.6
101299
101486
101818
102194
102471
102439
101772
100288
98048
95367.8
92669.7
90294.1
88429.6
87159.9
86519.2
101302
101489
101822
102198
102475
102437
101768
100284
98048.8
95375.4
92680.7
90303
88434.8
87162.5
86520.5
101305
101493
101828
102204
102477
102430
101754
100266
98041
95381.1
92696.2
90316.4
88442.7
87166.3
86522.4
101309
101498
101835
102212
102482
102415
101736
100248
98016.6
95387.2
92717
90334.2
88452.8
87171.1
86524.9
101312
101503
101842
102220
102487
102409
101721
100235
98017.1
95397.2
92739.6
90354.3
88464.3
87176.3
86527.5
101314
101506
101847
102225
102485
102409
101716
100229
98018
95414.5
92771.8
90375.7
88474.5
87181.2
86529.8
101314
101507
101848
102227
102486
102407
101706
100173
98004.9
95412.3
92777.2
90381.5
88477.6
87183.3
86530.9
101311
101503
101845
102223
102482
102408
101715
100229
98018.6
95415.7
92773.2
90376.7
88475
87181.4
86530
101306
101497
101837
102215
102483
102406
101719
100235
98017.6
95398.5
92741.1
90355.6
88465.2
87176.7
86527.5
101300
101490
101827
102204
102475
102410
101733
100247
98017.1
95388.6
92718.8
90335.6
88453.6
87171.2
86524.6
101294
101482
101818
102195
102469
102423
101750
100264
98040.6
95381.8
92697.4
90317.4
88442.9
87165.8
86521.5
101289
101476
101810
102188
102465
102430
101762
100281
98047.7
95375.5
92681.3
90303.2
88434.3
87161.3
86518.9
101285
101472
101805
102182
102460
102430
101766
100284
98046
95367.2
92669.5
90293.6
88428.5
87158.1
86516.9
101284
101470
101802
102179
102458
102430
101768
100286
98045.2
95363.1
92664
90289
88425.6
87156.4
86515.9
100907
101204
101770
102516
103270
103824
103564
101918
98994.1
95409.2
91963.2
89125.3
87014.1
85625.4
84938.5
100908
101206
101773
102520
103275
103825
103562
101917
98996.1
95417.1
91972
89130.8
87016.2
85625.6
84937.9
100909
101209
101780
102530
103286
103829
103553
101915
98999.9
95437.5
91994.3
89143.6
87020.9
85626.1
84936.8
100912
101214
101790
102545
103299
103818
103521
101895
98966.9
95453.7
92031.5
89165.8
87028.7
85627.2
84935.4
100915
101221
101803
102563
103312
103787
103438
101799
98893.7
95491.1
92077.4
89194.3
87040
85629.1
84934
100919
101229
101819
102583
103339
103766
103403
101784
98894.9
95524.6
92138.8
89230.4
87053.3
85632.1
84933
100921
101234
101826
102599
103331
103774
103390
101772
98893.5
95549.2
92268.7
89272.4
87068.9
85635.4
84932.8
100921
101235
101829
102604
103341
103786
103413
101782
98882.3
95549.1
92273.6
89280.5
87074.1
85638.6
84933.7
100917
101230
101823
102596
103328
103772
103389
101772
98895.3
95551.4
92270.8
89274
87069.7
85635.6
84933
100912
101222
101812
102577
103334
103762
103401
101784
98897.3
95527.8
92142.4
89233.3
87055.1
85632.8
84933.1
100905
101211
101793
102554
103305
103781
103434
101799
98895.9
95494.5
92081.2
89197.3
87041.6
85629.4
84933.5
100899
101201
101778
102534
103290
103810
103516
101894
98968.2
95456.6
92034.7
89168
87029.3
85626.4
84933.8
100894
101194
101766
102517
103274
103819
103547
101912
99000.2
95439.3
91996.2
89144.6
87020.3
85624.1
84934
100891
101189
101758
102506
103262
103815
103555
101913
98994.8
95417.6
91972.7
89130.6
87014.4
85622.5
84934
100889
101187
101754
102501
103257
103813
103556
101914
98992.3
95409
91963.2
89124.4
87011.7
85621.7
84934
100145
100605
101525
102869
104497
106156
107054
105103
100677
95204.2
90492.7
87008.9
84599.4
83085.2
82357.1
100144
100606
101528
102876
104507
106163
107047
105103
100679
95218.8
90505.9
87013.9
84599.2
83082.9
82354.1
100144
100608
101537
102894
104532
106182
107040
105119
100714
95274.5
90543.5
87027
84599.6
83078.7
82348.4
100144
100613
101552
102928
104567
106204
106876
105126
100616
95386
90627.4
87052.8
84601
83072.5
82340
100144
100619
101573
102960
104615
106148
106081
104801
101406
95547.5
90732.3
87096.2
84604.6
83065.1
82330.1
100146
100630
101607
103040
104710
105343
105956
104767
101442
96812
90882.5
87153.2
84615.8
83058
82320.5
100145
100636
101625
103063
104041
105375
105920
104725
101410
96837.6
92202
87198.4
84618.8
83053.5
82313.3
100144
100639
101635
103074
104045
105396
105944
104627
101406
96851.5
92188.3
87207.9
84637.6
83061.7
82312.4
100141
100631
101621
103060
104037
105382
105921
104706
101410
96847.2
92194.3
87201.5
84620.3
83054
82313.6
100137
100621
101598
103032
104704
105345
105927
104738
101417
96835.5
90891.3
87159.7
84619.5
83059.5
82320.5
100131
100607
101561
102949
104605
106139
106055
104787
101434
95554.6
90740.8
87102.7
84608
83065.6
82329
100127
100597
101537
102913
104555
106194
106870
105126
100621
95393.7
90634.8
87057.6
84602.4
83071
82336.9
100125
100590
101519
102878
104518
106170
107033
105116
100716
95279.8
90548.4
87029.3
84598.7
83075
82343.1
100124
100586
101509
102858
104491
106149
107037
105100
100680
95221.9
90508.5
87014
84596.2
83077.3
82347
100123
100584
101505
102850
104481
106141
107044
105098
100677
95205.8
90494
87007.8
84595.4
83078.5
82349
98805.9
99446
100776
102884
105813
109502
113375
110653
103217
93999.6
87547
83532.1
80980.3
79462.4
78760.8
98802.2
99443.8
100778
102892
105829
109520
113370
110659
103241
94032.7
87562.7
83531.4
80974.4
79455.7
78754.1
98795.6
99440.9
100783
102915
105881
109581
113387
110682
103319
94109.7
87601.3
83530.8
80962.4
79442.4
78740.6
98787.2
99439.1
100799
102988
106058
109731
111046
110771
104935
94583.8
87778.1
83550.2
80943.2
79421.5
78720.3
98776.5
99435.1
100822
103047
106132
108199
111003
110682
104997
96881.9
87932.8
83559.4
80916.9
79391.9
78694.4
98770.9
99446.5
100883
103255
105252
108375
111007
110536
104921
97098.3
90185.6
83647
80887.3
79368.6
78669.1
98759.5
99435.8
100882
102650
105322
108474
110058
109838
105267
98116.2
90377.6
85530.5
80803.8
79326.8
78643.1
98759.5
99444.1
100948
102661
105368
108513
110076
109816
105289
98156.8
90454.1
85594.5
80931.3
79326.5
78644.8
98753.9
99430.2
100876
102642
105351
108501
110056
109826
105268
98157.7
90441.9
85587
80808.3
79329.1
78643.8
98758.4
99434.2
100871
103244
105243
108385
110120
109844
105267
97171
90283.1
83660.3
80894
79370.6
78668.6
98760
99418.8
100806
103032
106118
108233
110964
110543
104900
97009.2
87952.1
83572.9
80923.6
79392.4
78691.6
98765.8
99418
100779
102968
106040
109717
111005
110745
105023
94602.2
87793.6
83559.3
80945.5
79418.1
78713.9
98771.3
99417.2
100761
102893
105861
109564
113375
110703
103327
94122.4
87611.4
83534.8
80960.1
79435
78730.4
98775.8
99418.1
100753
102868
105807
109501
113357
110662
103246
94041.4
87568.6
83531.7
80968.7
79445.2
78740.8
98778.6
99419.3
100751
102859
105791
109482
113360
110651
103219
94004.6
87550
83530
80972.6
79450.1
78745.9
96630.7
97405
99072.9
101916
106398
113412
119086
124541
110818
89498.9
81927.5
78148.5
75898.6
74678.3
74150.4
96620.9
97396.4
99067.6
101920
106420
113435
119094
124541
110822
89514.9
81925.2
78129.9
75882.5
74665.6
74139.1
96601.5
97379
99055.8
101916
106448
113503
119110
124543
110810
89494.8
81886.8
78077
75845.7
74638.6
74115.8
96576.8
97362.5
99059.9
101985
106873
111314
119224
124617
110771
93983.6
81965.1
77948
75781.5
74596.7
74079.9
96539.8
97322.9
99030
102057
105613
111604
119489
122154
112124
94665.7
85251.1
77809.4
75637.2
74522.2
74030.7
96515.9
97295.1
99086.2
101616
105719
110630
117691
121034
112068
96952
85381.5
80251.5
75497.9
74434.2
73978.8
96483.2
97252.3
99071.7
101654
105857
110669
116753
120996
112537
97908.2
87130.7
80293.7
75390.6
74355.3
73931
96468.7
97224.1
99062.7
101713
105190
110144
116768
120964
112503
97954.3
87131.4
80310.3
77390.6
74302.7
73919.9
96476.6
97245.4
99063.6
101679
105180
110632
116766
120966
112513
97971.4
87143.1
80282.1
75401.6
74358.1
73930.5
96498.7
97278.3
99070.9
101586
105819
110668
116727
121007
112563
97953.4
87195.9
80325.5
75512.7
74437.3
73976.4
96518.4
97301.7
99009
102035
105596
111638
117575
122028
112086
96848.9
85409.2
77836.5
75647.2
74520.8
74023.7
96548.1
97334.2
99032.1
101958
106847
111337
119240
124607
110783
94168.6
81993.4
77963.6
75783.5
74588.5
74066.6
96569.9
97348.3
99026.3
101888
106420
113480
119099
124521
110823
89524.1
81904.7
78082.1
75839.7
74623.8
74096.2
96586.5
97362.8
99035.2
101889
106391
113409
119067
124530
110841
89536.4
81936.5
78129.7
75870.8
74645.5
74114.5
96595.2
97370.4
99039.8
101885
106368
113385
119067
124532
110828
89510
81932.4
78143.3
75883.4
74655.3
74123.1
93385.7
94149.4
95842.2
98895.4
104041
111038
127775
157813
115108
82040.3
71626.8
70099.2
69164.8
68787.8
68652
93367.3
94130.7
95823.4
98876.2
104033
111033
127757
157797
115051
82010
71573.2
70051.2
69138.6
68770.2
68637.4
93327.8
94084.9
95768.1
98797.9
103919
111002
127677
157756
115039
81985.2
71450.3
69948
69079
68730
68606.8
93273
94026.1
95705
98581.1
103257
111367
127665
157625
114794
82017.7
74852.4
69576.9
68964.3
68661.7
68558.4
93192.2
93918.7
95504.2
98611.8
103276
110454
124674
157456
115597
85820.9
74475.1
71805
68678.1
68550.5
68488.8
93112.8
93763.2
95949
98665.9
102991
110423
123229
152368
120275
87739.2
76694.3
71622.2
70418.8
68398.6
68415.4
93061.2
93705.6
95932.1
98651.3
103009
109960
123117
152257
120208
87743.6
77967.6
73190.9
70360.1
68359
68374.5
93023.4
93667.3
95980.4
98662.9
102996
109922
123069
152205
120239
87815.5
78007.3
73200.2
70369.9
68363.6
68343.6
93054.8
93699.6
95932.3
98678.2
103013
109920
123066
152212
120262
87852.4
78045
73225.6
70340.7
68361.1
68371.5
93090.1
93739.4
95937.7
98622.5
103012
109947
123111
152257
120264
87826
78040.6
73252.5
70414.4
68399.4
68407.8
93162.1
93889.4
95475.6
98582.7
103247
110434
123227
152372
120344
87829.6
76905.9
71752.1
68690.1
68543
68472.2
93235.3
93989.3
95667.4
98545.8
103114
111265
124643
157481
114917
86188
74785.1
69598.9
68962
68642.9
68531.2
93285.9
94043.9
95730.1
98759.9
103880
110957
127634
157649
115048
82072.4
71477.7
69953.4
69063.9
68700.4
68569.6
93322.2
94087
95781.1
98835.7
103992
111000
127690
157750
115115
82075.4
71591.7
70045.7
69114.4
68732.6
68592.7
93339.4
94104.4
95799.8
98854.7
104001
110996
127727
157779
115093
82044.5
71632
70086.3
69135.3
68745.7
68603.2
88992.8
89492.7
90588.3
92551
95693.5
102570
110298
108348
23280.9
52099.5
56880.6
59562.5
61201.3
62222.2
62679
88966.2
89463.6
90555.2
92508.2
95660
102534
110270
108264
22679.2
52023.9
56793.5
59518.5
61182.8
62207.5
62666.3
88907.9
89392.9
90473.3
92427.6
95532.8
102433
110179
108187
22852
52027.8
56687.3
59492.4
61153.6
62178.8
62642.4
88822.2
89277.7
90334.1
92131.9
96748.9
102035
109925
108093
23084.4
52118.5
58128.8
59542.1
61122.8
62134.4
62609.2
88700.1
89118.9
90079
93213.1
96491.3
102388
110634
107935
23209.3
55335.5
59663.4
60870.2
61113.2
62095.9
62565.9
88560.6
88948.2
91191.6
93071.8
96903.4
102570
110425
107650
22983.3
55642
60634.7
61009.9
62332.8
62117
62529.8
88498.4
88875.1
91157.3
92973
97111.2
102482
110301
107516
23037.1
55907.6
60933.4
62056.1
62330.2
62150.7
62531.4
88465.1
88826.5
91111.9
93574.8
97092.3
102435
110240
107411
23251.3
56332.8
61231.3
62696.1
62404.9
62187.2
62521.7
88486.3
88863.6
91108.5
93563.5
97089
102431
110234
107415
23331.3
56504.3
61330.6
62739.8
62373.8
62150.4
62522.9
88532.2
88921.1
91156.4
92971.4
97095.2
102470
110285
107486
23239.8
56181.8
61124.7
62136.9
62346.5
62108
62509.6
88659.1
89078
90038.8
93105.7
96899.3
102551
110403
107610
23217.3
55850.7
60778.7
60949.7
61114.7
62071.8
62529.6
88771.4
89229
90288.7
92084.5
96606.4
101678
109566
107915
23341.3
54004.5
58096.3
59569.1
61106.6
62093.2
62556.1
88852
89338.7
90422.6
92382.9
95485.1
102180
109951
108000
23212.5
52154
56734
59490.8
61118.2
62121.5
62574.4
88906.3
89406.2
90501.8
92458.2
95610.4
102448
110145
108098
23146.2
52121.5
56810.9
59499.2
61134.4
62139.1
62587.8
88931.6
89434.2
90534.3
92501
95645.1
102511
110218
108172
22827.2
52098
56882.7
59533.3
61145.7
62147.8
62594.8
83699.1
83695.7
83660.5
83591.2
83803.2
88088.5
92087.3
105398
3975.01
31214.5
43158.5
49505.7
53601.5
55970.6
57021.5
83669.7
83663.5
83626.5
83554.1
83783.3
88049.5
92052.7
105211
2239.05
31213.4
43092.5
49501.7
53601
55964.3
57014.7
83608.7
83594.2
83552.7
83517.3
83732.4
87947.3
91956.1
105122
2223.59
31218.3
43117
49553.6
53617.7
55966.2
57008.7
83522
83479.1
83442.6
83555.3
86434.8
87862.1
91732.6
104992
4823.75
31394.5
43504.2
49804.7
53692.7
55990.1
57014.2
83406.4
83336.6
83340.3
85468.4
86429.5
89644.7
92757.5
104967
2240.37
31269.7
44207.1
50699.3
53857.3
56061.9
57036.1
83279.8
83265.5
84901.3
85349.3
87618.7
90386.5
92583
104532
2254.83
31709.3
44733.8
50848.8
54660.9
56176
57075.8
83225.7
83212.5
84808.6
85278.7
88214.7
90261.3
92469.7
104419
2276.38
32456.9
45271.2
51453.6
54748.3
56230.7
57102.1
83192.5
83169.2
84742.8
86268.3
88145.3
90199.6
92415.1
104324
2306.97
34522.8
46043.3
51930.2
54819.8
56272.4
57100.4
83206.1
83192.4
84737.5
86253.2
88142
90194.6
92407.1
104334
11930.4
35886.5
46348.6
52010.1
54814.8
56227.4
57083.6
83240.4
83228.2
84791.4
85292.6
88189.5
90247.8
92447.9
104371
2664.58
33561.3
45742.9
51590.9
54745.6
56151.7
57032.2
83349.5
83280.6
83291
85347.3
87634.2
90376.4
92549.7
104469
2357.66
32216.9
45018.5
50830.4
53842.7
56006.4
56964.2
83452.6
83412.4
83380.6
83502
86419
87936.8
91808.9
104899
2369.82
31623.5
43832.3
49803.6
53641.5
55907
56916.3
83532.5
83521.4
83486.1
83455.9
83677.3
87843.7
91759.2
104896
5705.03
31392.4
43150.5
49521.2
53540.5
55860.7
56889.7
83589.1
83587.7
83559.9
83498.1
83733.6
87952.8
91920.4
105039
2570.75
31294.3
43091.1
49450.4
53508.6
55844.9
56881.8
83617.1
83619
83593.6
83535.3
83754.1
88027.1
92003
105129
2451.43
31293.4
43146.5
49445.4
53501.4
55843.9
56881.5
78176.3
77614.3
76436
74537.5
74371.8
73673.6
76470.9
2171.11
23435.5
35718.3
43127.2
48230.7
51270.4
52674.1
78148.7
77584.8
76407.4
74514.2
74337.4
73634.6
76427.9
2206.99
23413.5
35687.9
43143.2
48230.1
51263.6
52665.7
78096.6
77532.9
76346.9
74460.5
74331.7
73604.7
76343.9
2215.39
23237
35786.1
43185.3
48243.6
51267.9
52658.1
78034.5
77465
76271.5
74572.2
74610.7
73513.1
76166.8
2237.78
23298.6
35049
43409
48306.6
51299.6
52664.1
77966.7
77390.5
76322.7
76515.8
75132.2
75516.1
76784.9
2259.23
21399.1
34762.4
43320.3
48423.1
51373.9
52689.7
77894.9
77432.7
77775.7
76695.2
76437.2
76405.2
76649.8
2263.81
21727.9
34847.2
43474.8
48584.8
51401.1
52734.6
77858.8
77414.1
77668.9
76728.8
77168
76365.1
76574.8
2273.47
22827.1
35526.2
43617.4
48694
51408.5
52733.7
77824.4
77382.5
77620.2
77603.1
77207.9
76331.8
76541.7
2284.79
26275.8
36595.2
43913.1
48720.6
51419.1
52714.7
77828.6
77384.2
77608
77604
77202.3
76323.9
76531.1
44959.5
29831.7
37072.3
44005.4
48711.2
51377
52692.7
77838.3
77379.6
77655.2
76718.1
77146.5
76341.5
76543.2
44183.5
25134.6
36159.7
43729.5
48660.3
51327.8
52646.7
77885.9
77310.3
76247.8
76418.5
76373.8
76362.8
76599
2329.37
22414.6
35176.3
43424.5
48331.9
51253.9
52556
77937.1
77372.1
76186.1
74504.1
74645.2
73553.2
75816.8
2314.32
22212.8
35229.7
43318.4
48176.1
51141.5
52492.9
77990.4
77433.4
76261.2
74392.6
74287.7
73501.1
76165.5
2370.31
23344.5
35757.1
43082.7
48089.8
51083.7
52459.5
78037.6
77482.7
76323.7
74456.7
74322.2
73582.9
76318.4
2385.85
23408.1
35643.7
43029.7
48064
51064.6
52450.7
78063.8
77511.8
76353.6
74482.7
74308.4
73623.3
76394.9
2383.64
23515.2
35678.3
43011.7
48059.4
51064.3
52451.1
73306.9
72231.4
69968.6
65964.6
63942.1
56966.5
53123.6
3697.37
2171.97
21737.2
33208.9
40698.5
45812.4
48896.1
50364.8
73276.5
72198.2
69930.9
65922.1
63895.2
56895.4
52977.2
2488.57
2201.28
21603.9
33140.4
40687.4
45782.7
48870.2
50338.2
73220.6
72142.8
69855.5
65807.7
63824.4
56806.4
52910.2
2594.07
2209.41
18793.2
33251.3
40668
45745
48831.3
50292.4
73157.9
72083.5
69721.7
65706.7
63722
56667.6
52944.5
2334.26
2252.15
19068.4
31098.4
40667
45702.1
48792
50238.7
73105.8
72015.7
69617
68439.6
63490.6
59334.1
54709.3
2467.37
2304.29
17468.2
30099.4
39413.2
45650
48770.8
50186
73053.6
71985.3
71393.8
68278.6
65238.8
60498
54638.3
2498.88
2458.03
17867.8
29792.5
39399.2
44975.9
48686.9
50148.7
73007.5
71933.7
71326.7
68106.5
65972.2
60395.9
54613.3
2290.92
2269.54
18817
30271.6
38928.4
44983
48614.1
50085.2
72964.2
71897.9
71265.6
69363.7
65920.8
60345.8
54633.4
6156.78
2233.09
21023.3
30962.3
38866.3
44963.9
48568.3
50033.4
72962.3
71889.3
71259.9
69373.3
65913.3
60339.5
54629
26488.8
2178.15
21472.4
31145.7
38895
44936.2
48532.5
50005.2
72970.3
71905.9
71316.4
68122.2
65970.8
60382.4
54596.5
2383.91
2175.65
19191.7
30488.2
38917.5
44900.5
48528.9
49989.4
72989
71901
69510.8
68308.2
65225
60461.7
54585.3
2251.59
2306.23
17772.2
29822.4
39260.6
45429.6
48546
49957.3
73017.9
71951.7
69605.5
65620.9
63549.6
56551.3
52790.5
2321.06
2300.67
17997.8
30982.7
40428.6
45442.8
48518.8
49959.1
73069.1
72002.2
69739.1
65730
63694.8
56703.4
52834.4
3261.14
2393.16
19422.9
33121.9
40449.7
45471.7
48530.8
49979
73118.8
72055.1
69819.2
65863.2
63852.1
56861.7
52927.9
2295.32
2384.77
21615.4
33035
40477.2
45506.2
48556.1
50006.4
73147.6
72088.9
69862.1
65917.9
63916.7
56964.5
53020
2338.59
2397.94
21718
33120.8
40495.3
45535.6
48576.3
50024.6
69884.5
68410.5
65273.5
59663.6
49864.8
40852.8
17070.8
2239.17
2175.5
23540.2
34375.4
41359.1
46095.2
48916.6
50262.5
69841.4
68362.4
65207.9
59584.5
49763.4
40706.2
17233.6
2285.1
2205.01
23227.2
34259.2
41280.1
46018
48855.2
50204.1
69761.4
68279
65100.7
59466.3
49619
40384.8
17224.5
2293.11
2215.38
19201.1
34053.9
41177.5
45896.1
48743.3
50096.3
69658.3
68183.8
64916.3
59273
53841.1
40083
17511.2
2284.17
2244.27
18885.7
30640.8
40945.9
45710
48588.9
49951
69562.9
68079.9
64763.2
61723.3
53660.4
43593.9
23699.7
2285.18
2291.49
16322.7
28962.2
38626.8
45482.1
48430.2
49787.6
69477.6
67957.4
66402.3
61534.7
55624.4
45153
24124.8
2199.27
2287.35
16370.4
28144.2
38344.4
43968
48238.8
49637.5
69392.2
67847.3
66344
61320.5
56399.8
44924
23973.8
2285
2258.64
16605.6
28165.6
37225.6
43798.5
48075
49498
69330.2
67787.9
66272.1
62646.6
56219.7
44773.6
23971.6
2323.29
2305.29
16821.3
28214.4
36720.6
43669.9
47972.3
49404.3
69325.5
67780.6
66262.5
62641.8
56208
44766.9
23876.5
2303.24
2189.08
16721.3
28138.2
36657.3
43626
47935.1
49366.6
69354.2
67833
66322.2
61321
56377.2
44949.9
24204.3
2295.16
2304.4
16314
27952.4
37040.7
43662.9
47975.9
49385.1
69391
67909.6
64598.7
61618.1
55599.6
45158
24179.3
2259.98
2243.66
16090.5
27846.3
38096.5
45089.2
48066.7
49433.5
69454.2
67989
64740.2
59137.1
53715
40067
19020.1
2279.33
2288.11
16933.9
30195.6
40507
45275.6
48162
49527.1
69540.5
68072.2
64928.5
59357.5
49621.3
40358.4
17489.5
2280.7
4870.35
19513.3
33791.2
40787.3
45458
48284.8
49629
69611.9
68153.5
65046.5
59510.7
49830.7
40746
17333
2294.02
2392.45
23234.2
34088.2
40932.3
45589.2
48384.4
49715.6
69653.1
68203.7
65124.3
59621.4
50001.4
41059.3
17487.9
2287.32
2405.06
23522.2
34268.4
41036.9
45674.4
48442.2
49765.2
68526.9
66990.7
63702.3
58014.4
47979.3
37634.5
4654.56
2279.46
4264.58
29476.5
38768
44809.3
48764.1
51037.7
52119
68464.5
66921.2
63602.1
57855.7
47895.5
37114
5342.49
2295.78
2962.08
29185.4
38537.1
44636.1
48627.2
50931.6
52022.5
68352.2
66802.5
63446.9
57647.5
48259.6
35844.3
7848.99
2292.27
2214.54
22494.1
38327.5
44435.9
48392.3
50737.9
51844.6
68203.2
66661.6
63256.7
57484.6
50264.6
35053
8614.83
2287.25
2237.97
21932.5
33865.4
44022.6
48051.7
50462.7
51600.7
68056.8
66519.3
63138.2
58835.6
49845.6
37250.4
17037.4
2291.97
2279.99
18037.3
31328.2
40893.6
47663.2
50164.1
51323.9
67923
66372.1
63977.5
58535.3
50962.4
37963.6
16644.7
2285.09
2278.46
17652.9
29785.1
40306.2
45522.5
49879.6
51062.4
67795.4
66218
63857.8
58281.8
51302.3
37387.6
15802.6
2299.01
2283.02
17290.3
29308.3
38547.5
45151.4
49624.2
50841.7
67713.1
66128.6
63774.4
59133.8
51009
36973.5
15547.1
2314.36
2330.01
15049.1
28682.6
37597.9
44909.5
49461.7
50699.8
67698.5
66117.5
63758.9
59106.9
50979.4
36929.9
14380.3
2209.33
2303.52
14589.7
28387.7
37440.2
44839.5
49420.1
50651.7
67742
66183.3
63787.9
58254.2
51225.5
37431.3
16199.9
2310.76
2311.27
16141.9
28663.6
38163.4
44948
49494.3
50700.1
67805.8
66264.2
62872.1
58569
50885.8
37981.9
17053
2232.58
2309.86
16981
29112.6
39943
47075.2
49633.7
50817.9
67906.2
66369.9
62976.4
57249.6
49917.2
35322.9
16524
2257.88
2293.83
18647.9
32850.2
43319.6
47399.2
49845
50997.4
68029.4
66492.4
63175
57466.6
48255.9
35705.2
10382
2314.03
4303.75
22288.9
37788.7
43799.8
47736.5
50076.9
51183.3
68128.2
66606.9
63343.4
57736.5
47933.2
37676.5
6364.97
2298.05
3394.85
29332.1
38222.2
44088.9
47993.3
50257.6
51334.8
68187.3
66679.2
63463.3
57959.4
48179.5
38581.9
6184.87
2325.62
4556.3
29851.9
38577.7
44314.9
48149.5
50362.4
51421.5
69474.4
68329.5
65898.7
62013.1
53706.4
44174.3
9822.3
2261.29
28794
44060.8
47281.3
51191.6
53540.4
54869.9
55530.2
69391.4
68231.9
65757
61727.2
53319.4
43720.1
7505.1
2284.22
28080.6
43556.5
46875.1
50910.5
53337.9
54716.2
55393.9
69245.5
68069.7
65548.1
61282.6
54929.7
41732.9
13608.1
2328.47
12738.2
33741.7
46774.4
50509.5
52980.2
54443
55144.3
69053.8
67856.6
65250.3
60941.5
54041.7
40721.6
15088.7
2268.94
2454.77
31245.9
41346.3
49893.3
52470.8
54053.8
54802
68858.8
67637.7
65018.9
60703.2
53057.6
40606.8
19869.5
2222.71
2255.77
24566
37932.2
46169.3
51948.3
53618.1
54414.2
68675.5
67448.6
64864
60106
52703.3
39997.2
19401.6
2292.92
2266.37
22830.8
35414.8
45274.1
49347.8
53239.9
54044.9
68505.8
67245.6
64590.6
59686.4
52309.9
38801.6
16362.3
2285.19
2381.61
21270.2
34498.6
42995.6
48822.6
52902.5
53739.3
68400.1
67124.5
64441.7
59821.2
51848
37965
14911
2322.82
2283.31
20767.6
33660.1
41705.9
48486.6
52686.1
53546.1
68370.5
67100
64409.5
59765.3
51768.7
37853.1
13710.6
2335.33
2263.54
16810.8
33024.3
41469.1
48387.7
52629.9
53484.3
68419.7
67174.1
64464.7
59605.8
52090.6
38683.5
17728.9
4540.46
2322.63
19048.6
33371.1
42413.5
48536.2
52720.4
53555.6
68505
67267.2
64607.8
60026.5
52487.8
39812.9
20010.3
2235.62
2332.13
21444
34249.6
44758.9
51114.2
52884.8
53726.7
68633.5
67428
64807.4
60497
53153.4
40336.9
18931.6
7678.12
2328.11
25331.5
39550.6
48815
51536
53199.9
53981.5
68785.1
67610.8
65107.9
60918.8
54782.4
41489.4
14825.9
2375.34
10195.5
31885.9
45813.2
49530.8
52036.9
53528.5
54246.6
68908.1
67760
65325.8
61428
53349.2
44161.5
12564.1
2367
30392
43596.7
46290.3
50066.3
52427.6
53785.5
54462.4
68984
67858.3
65493.1
61797.2
54047.8
45889.5
18952.9
11137.8
33450
45020.8
46997.4
50454.8
52665.5
53940.2
54587.4
72284.1
71859.5
71011
70772.3
69621.6
75358.8
110998
85907
76746.9
64726.3
60006.6
60028.5
59795.3
59854.6
59966
72182.7
71726.1
70817.1
70316.4
68777.3
73868.9
107419
71582.5
73833.4
63542.2
59365.2
59616.7
59526.2
59654.7
59791.4
72003.8
71502.5
70535.2
69133.4
68421.5
61885.8
63779.6
53379.7
49897.3
54376.2
58636.4
58808.1
59046.8
59299.5
59469.7
71767.6
71207
70052
68449.5
64017.1
58563.1
50495.7
15064.2
27479.1
51269.9
53775.3
57799.5
58361.4
58799.9
59028.5
71524.1
70898.6
69650.6
66416.2
62591.7
54504.2
36055.3
2293.48
18920.2
41458.1
49580.2
54193.7
57657.2
58224.7
58529.6
71297
70638.9
68425.6
65629.1
60539.5
51561.2
32376.8
2256.81
15021.9
36093.1
45838.1
53019.6
55007.6
57706.6
58057.6
71089.8
70393.8
68025.8
65149.2
59367.2
49651.5
28093.5
2271.18
2269.01
31887.7
43702.7
50249.1
54357.7
57282.2
57667.8
70960
70245.4
67832.8
64463.2
58811.9
48603.6
25517.4
2352.05
2232.51
27016.7
42025.2
48645.5
53983.2
57022.3
57426.6
70910.2
70197.1
67771.3
64364.8
58642.7
48302.6
25266.9
2290.93
2228.82
21540.2
41672
48426.6
53852
56942
57345.9
70954.5
70265.9
67839.6
64926.3
58895.3
48753.6
26626.3
2318.08
2368.13
23331.2
42592.5
49556.6
53982.4
57043.2
57428.3
71049.7
70385.8
69040.9
65339.8
60040.3
50597.9
29506.3
2335.78
10939.3
32976.7
44096.8
52242.3
56554.1
57262.8
57633.3
71199.9
70606.4
69385.9
67692.8
62437.9
56727.3
37988.3
2286.16
17746.9
42024
50943.1
56300
57089.8
57668.1
57956.4
71375.6
70849.7
69847
68429.4
67788.6
59547.1
55176.2
50094.1
46221.3
51351.6
57056.4
57369.5
57747
58085
58299
71515.6
71040
70112.6
69637.5
68341.7
74072.1
109121
90940.4
75560.9
63074.9
58223.1
58322
58256.3
58415.5
58577.7
71601.4
71161.2
70311.7
70097.1
69038.2
75805.1
106530
101274
80224.6
65251.5
59227.2
58878.3
58573
58616.9
58739
75939
76248.3
76814.3
79443.8
84183
88129.7
117253
122241
98825.7
79861
72252.3
68605.3
66141.5
65115.3
64705.4
75839.1
76106.1
76648
79135.3
83672.2
88269.1
119643
129002
99509.3
79298.8
71717.5
68189.6
65848.5
64883.8
64501.3
75652.8
75825.2
76386.3
77717.4
81831.5
85083.9
106715
131112
101525
78687.1
70303.4
67163.8
65300.4
64447.5
64115.5
75396.2
75487.3
75789.8
76756.5
76970
82959.6
101382
130524
95962.5
75471.7
67827.9
65786.9
64480.4
63839
63579
75127.4
75134.4
75228.1
74041.4
74862.7
76267.8
85507.4
129373
85008.1
68755.1
64469.7
63265.7
63558.9
63125.3
62962.7
74880.3
74759.7
73501.2
73167.9
71984.2
71587.7
76650.7
104099
65834.6
61592.1
60732.8
62003.9
61512.8
62415.3
62374
74654.7
74485.7
73099.9
72612.5
70297.9
69510.3
65605.1
9497.16
2317.45
47365.6
57131.7
59654.4
60834.1
61895.8
61894.1
74506.6
74321
72884
71396.7
69932.5
69637.1
69104.1
9731.83
2661.59
27993.4
54046.8
57946.6
60425.8
61620.9
61610.6
74431.7
74243.5
72788.8
71266
69705
69152.4
68809.5
35135.2
2108.86
36445.1
54101.6
57701.3
60276.6
61509.9
61503.1
74453.1
74293.5
72824.2
72258.5
69657.3
68199.3
59782
12905.8
2396.75
46882.5
56030.3
58852.5
60352.8
61614.7
61592.8
74533.5
74482.8
74441.2
72692.9
71171.5
70044
72020.7
81161.3
47727.8
56524.9
58215.5
60856
62197.9
61928.6
61840.8
74678.8
74705.4
74873.8
75621.2
74739.5
78938.5
87359.3
121446
80481
66621.5
64002.5
63817.8
62849.5
62408.4
62237
74849.2
74955.9
75383.7
76505.1
80173.4
82580
101980
128217
95354.7
74488
67821.2
65148.6
63599.3
62907.9
62656.3
74974.2
75166.8
75557.4
77808.6
81561.8
85580.9
111617
109634
91133.8
76133.2
69234.9
66218
64135.6
63302.2
62988.2
75042.7
75262
75652.5
77930.1
81086
85148.4
102925
97026.9
91579.4
76653.2
69842.7
66709.1
64452.3
63527.1
63175.3
79245.7
79872
80849
82913.5
87931.7
86640.4
92459
98962.4
90107.1
82902.1
78075
73950.9
71065.3
69648.7
68968.8
79189.5
79795.3
80818.6
83097.4
88136.5
87810.6
94792.9
103693
91244.2
83212.9
78038.2
73734.1
70826.3
69420.4
68754.7
79066.7
79578.7
80771.8
82788.4
86735.7
89474.2
94931.2
105767
91826
84028.4
76933.7
73005.9
70324.5
68948.8
68333.5
78864.5
79324.5
80370.9
82554.3
84139.4
89939.3
99314.9
113161
97726.4
83897.6
76384.9
71932
69525.7
68268.2
67725.2
78624.9
79014.4
79920.9
80446.9
83362.1
87968.1
98943.4
115297
101258
84972.5
75384
70577.5
68536.1
67425.7
66990.7
78381.7
78613.5
78523.1
79690.5
81321.2
85970.8
98640.6
122397
107472
85425.6
74399.8
69573.4
67135.6
66494.6
66228.1
78165.6
78348.1
78193.1
79169.9
80122.5
84997
96059.1
123970
125309
86465.4
73375.8
68468
66435.5
65829.7
65614.6
78012.3
78174.2
77952.4
78216.5
79779.2
85693.7
117721
992.982
124140
83437.1
72102.8
67768
66114.1
65514.6
65254.6
77911
78071.3
77828.1
78054.8
79593.5
85349.5
105314
2212.81
119372
81476.4
71274.3
67482.6
65968.5
65360.3
65115.5
77890.9
78075.8
77806.9
78710.2
79557.3
84747.6
99000.5
138175
115783
80835.2
71030.4
67417.8
65853.5
65460.9
65245.9
77937.9
78255.9
78980.1
79118.7
80440.6
85057.4
98659.1
126910
98480
79715.8
71224
67929
66776.9
65924.1
65609.3
78029.4
78400.1
79255.3
81158.7
82149.6
87495.7
96370.7
110321
95729.9
80091.4
72539.7
69510.4
67512.1
66524.3
66108.8
78124.6
78536.7
79507.4
81210.5
84373.8
86864.7
92215.9
100609
87477.7
79888.2
73811.6
70514.4
68249.7
67104.6
66605.9
78167.4
78662.3
79391.4
81473.7
85162.5
83967.3
89481.1
88382.9
84705.5
78505.1
74535.5
71202.5
68698
67526.5
66970.4
78175.1
78664.4
79275.1
81235.2
83858.2
82803.2
86203.1
87936.1
85719.7
77877.4
74618.6
71436.4
68927.2
67741.2
67165.2
81561.5
82065.4
82850.2
83264.4
86261.1
84967.1
84325.1