/*--------------------------------*- C++ -*----------------------------------*\
| =========                 |                                                 |
| \\      /  F ield         | OpenFOAM: The Open Source CFD Toolbox           |
|  \\    /   O peration     | Version:  v2012                                 |
|   \\  /    A nd           | Website:  www.openfoam.com                      |
|    \\/     M anipulation  |                                                 |
\*---------------------------------------------------------------------------*/
FoamFile
{
    version     2.0;
    format      ascii;
    class       volScalarField;
    location    "0.001";
    object      p;
}
// * * * * * * * * * * * * * * * * * * * * * * * * * * * * * * * * * * * * * //

dimensions      [1 -1 -2 0 0 0 0];


internalField   nonuniform List<scalar> 
449343
(
201211
200993
200495
199595
198119
195876
192753
188801
184265
179568
175160
171398
168492
166533
165549
201195
200977
200479
199578
198101
195856
192732
188781
184248
179553
175146
171383
168475
166514
165530
201182
200965
200466
199563
198082
195834
192709
188760
184233
179544
175138
171373
168461
166496
165511
201172
200954
200455
199549
198063
195809
192683
188736
184217
179538
175136
171368
168450
166480
165492
201162
200944
200443
199535
198041
195781
192652
188709
184200
179536
175141
171367
168441
166465
165474
201152
200933
200431
199518
198019
195754
192620
188685
184192
179537
175150
171370
168434
166452
165457
201138
200919
200416
199499
197996
195727
192595
188662
184181
179536
175151
171367
168426
166438
165440
201121
200902
200399
199482
197978
195707
192564
188611
184147
179520
175139
171355
168411
166421
165423
201100
200881
200377
199461
197958
195690
192558
188626
184144
179501
175115
171332
168390
166402
165405
201075
200856
200355
199442
197943
195679
192546
188611
184119
179465
175078
171298
168363
166381
165386
201047
200829
200329
199420
197928
195668
192540
188598
184091
179428
175033
171260
168334
166359
165368
201018
200800
200301
199397
197911
195659
192534
188588
184071
179393
174992
171224
168306
166337
165349
200990
200772
200274
199372
197892
195646
192523
188575
184049
179361
174957
171192
168281
166316
165331
200964
200746
200249
199349
197872
195629
192507
188558
184026
179333
174927
171165
168257
166296
165312
200940
200723
200226
199327
197852
195610
192489
188539
184005
179309
174902
171142
168236
166277
165294
201423
201270
200901
200185
198924
196845
193689
189446
184422
179216
174429
170465
167477
165494
164508
201408
201255
200886
200170
198907
196825
193667
189426
184406
179204
174416
170449
167459
165474
164487
201397
201244
200875
200158
198891
196803
193642
189405
184394
179200
174412
170439
167443
165455
164466
201388
201236
200867
200148
198874
196775
193609
189371
184380
179203
174420
170436
167430
165435
164444
201380
201229
200860
200138
198857
196740
193561
189315
184354
179218
174440
170441
167420
165418
164423
201372
201221
200851
200129
198833
196705
193527
189285
184359
179258
174470
170450
167414
165401
164403
201360
201208
200839
200107
198805
196679
193505
189264
184352
179274
174488
170456
167406
165385
164384
201343
201192
200823
200093
198792
196661
193479
189102
184316
179256
174479
170446
167392
165369
164367
201321
201170
200801
200069
198768
196642
193468
189228
184316
179239
174453
170421
167371
165350
164349
201295
201144
200775
200052
198758
196630
193453
189211
184286
179187
174399
170379
167343
165331
164333
201265
201114
200745
200024
198744
196627
193450
189205
184245
179110
174333
170335
167314
165312
164317
201234
201082
200713
199996
198723
196625
193460
189224
184235
179060
174277
170294
167287
165293
164302
201204
201052
200683
199967
198702
196615
193456
189221
184211
179019
174232
170260
167264
165276
164287
201177
201024
200655
199940
198679
196599
193443
189204
184186
178985
174199
170232
167243
165258
164271
201153
201000
200631
199917
198657
196580
193425
189185
184163
178959
174173
170209
167223
165240
164253
201891
201892
201831
201564
200838
199228
196072
191062
184772
178267
172579
168181
165034
163011
162023
201877
201878
201818
201551
200824
199209
196050
191043
184760
178259
172569
168165
165013
162988
162000
201868
201871
201812
201547
200816
199189
196015
191020
184756
178269
172573
168153
164992
162963
161974
201863
201868
201812
201548
200811
199148
195963
190993
184747
178300
172601
168152
164972
162936
161945
201860
201867
201815
201550
200792
199111
195805
190804
184732
178386
172659
168163
164957
162910
161917
201856
201867
201818
201550
200791
198990
195782
190781
184740
178585
172738
168190
164946
162886
161889
201847
201859
201809
201539
200727
198969
195753
190753
184732
178622
172851
168225
164940
162861
161864
201832
201845
201797
201531
200737
198977
195834
191688
184734
178621
172848
168219
164927
162845
161845
201809
201821
201771
201501
200689
198932
195717
190717
184696
178587
172816
168190
164905
162826
161829
201780
201790
201742
201474
200716
198915
195708
190708
184669
178515
172668
168121
164877
162817
161820
201745
201752
201700
201436
200678
198999
195695
190695
184624
178281
172554
168059
164852
162806
161812
201709
201714
201659
201395
200660
198998
195815
190848
184605
178159
172461
168012
164832
162796
161805
201675
201678
201620
201356
200626
199001
195830
190837
184576
178090
172396
167976
164815
162786
161797
201646
201647
201587
201322
200596
198983
195827
190823
184542
178043
172354
167951
164799
162774
161786
201621
201622
201561
201295
200570
198963
195809
190803
184516
178013
172327
167929
164782
162759
161771
202454
202698
203139
203646
203941
203435
200813
194132
185240
176101
169032
164187
160954
158968
158029
202441
202687
203130
203639
203935
203422
200785
194118
185234
176100
169023
164164
160927
158941
158002
202435
202684
203132
203647
203946
203422
200745
194122
185261
176146
169033
164141
160894
158906
157967
202434
202689
203146
203674
203969
203380
200484
194141
185274
176251
169094
164120
160851
158864
157927
202438
202699
203171
203713
204020
203460
200099
194980
187356
176609
169226
164137
160813
158819
157884
202441
202711
203201
203764
204074
202548
200102
195033
187423
178948
169311
164156
160785
158774
157841
202436
202711
203212
203746
203335
202562
200087
194976
187359
178922
171805
164245
160729
158731
157803
202422
202699
203200
203740
203362
202576
200101
194846
187302
178948
171788
164233
160729
158721
157782
202397
202673
203174
203708
203326
202534
200049
194936
187311
178916
171770
164211
160694
158698
157770
202364
202634
203125
203688
203999
202473
200033
194933
187315
178853
169243
164088
160717
158706
157773
202323
202584
203057
203599
203906
203348
199989
194924
187318
176507
169125
164035
160711
158717
157782
202281
202535
202993
203522
203817
203230
200337
193998
185135
176114
168958
163984
160715
158727
157790
202242
202492
202940
203456
203756
203234
200560
193942
185085
175973
168861
163969
160720
158733
157794
202209
202456
202899
203409
203706
203196
200563
193900
185021
175890
168814
163955
160718
158731
157792
202183
202428
202869
203378
203674
203171
200552
193876
184989
175854
168786
163940
160707
158721
157781
202756
203315
204429
206072
208073
209962
209837
201651
185273
171201
162831
158035
155089
153401
152642
202744
203304
204422
206070
208078
209961
209811
201634
185265
171205
162811
157996
155051
153367
152610
202739
203304
204432
206093
208120
210027
209793
201639
185334
171276
162797
157938
154992
153317
152565
202740
203315
204463
206154
208263
210072
207680
201642
188990
171571
162812
157848
154907
153251
152509
202747
203334
204515
206256
208344
208655
207595
201500
189124
175877
163002
157744
154806
153175
152446
202756
203363
204606
206442
207171
208448
207488
201346
189145
176459
166645
157741
154669
153090
152381
202754
203372
204652
205477
207206
208552
206685
201390
190628
178203
166789
160592
154417
152985
152311
202741
203366
204652
205461
207225
208528
206701
201332
190582
178163
166819
160640
154534
152963
152290
202716
203334
204614
205440
207193
208501
206665
201367
190557
178142
166801
160620
154384
152953
152279
202679
203287
204530
206367
207136
208459
206619
201331
190570
176418
166710
157677
154603
153024
152316
202632
203219
204400
206142
208231
208553
207462
201204
188991
175954
162906
157647
154708
153077
152347
202587
203161
204310
206001
208111
209922
207475
201476
188945
171442
162682
157718
154775
153118
152375
202546
203112
204240
205901
207929
209839
209609
201477
185165
171112
162633
157772
154825
153149
152396
202513
203073
204191
205840
207849
209734
209589
201426
185060
171006
162611
157795
154848
153162
152405
202486
203045
204159
205803
207806
209697
209577
201399
185031
170964
162594
157796
154848
153159
152399
202352
203238
205093
208113
212640
218855
221488
216736
188558
159617
152341
149090
147281
146401
146052
202337
203225
205086
208113
212655
218888
221485
216724
188555
159612
152281
149020
147229
146361
146017
202328
203221
205094
208133
212696
218970
221482
216739
188584
159639
152168
148890
147137
146297
145964
202325
203229
205145
208253
212988
215979
221224
216814
189198
167009
151851
148527
146955
146199
145892
202323
203241
205210
208386
211066
216318
221315
215834
193351
167683
156562
148128
146715
146072
145808
202330
203269
205357
207356
211311
214911
219279
215077
193717
171343
156540
151305
146380
145934
145719
202323
203271
205396
207412
211427
215026
218246
215074
195092
173045
159198
151226
146150
145774
145619
202294
203235
204753
207461
210391
214322
218251
215020
195040
172967
159113
151154
148631
145715
145594
202285
203233
205359
207405
210377
215061
218237
215005
195026
172961
159105
151106
146120
145743
145588
202253
203193
205281
207291
211323
214962
218230
215031
195059
173026
159220
151186
146319
145872
145656
202208
203126
205095
208272
211011
216339
219200
215476
193527
171284
156496
148037
146622
145978
145712
202171
203076
204992
208099
212834
215947
221140
216747
189253
167291
151731
148404
146830
146071
145763
202136
203029
204902
207941
212505
218781
221250
216576
188608
159491
152016
148733
146978
146135
145801
202106
202994
204855
207882
212425
218660
221240
216511
188376
159432
152095
148829
147034
146163
145818
202082
202968
204823
207843
212371
218588
221226
216490
188346
159401
152118
148863
147049
146166
145816
200781
201893
204305
208452
215328
222423
240606
263243
178362
142479
135563
136921
137680
138329
138667
200763
201875
204291
208445
215329
222432
240579
263215
178347
142459
135423
136815
137622
138290
138634
200741
201852
204267
208415
215288
222539
240514
263153
178325
142390
135208
136652
137534
138231
138588
200720
201831
204253
208423
213397
223172
240693
263142
178141
142517
138802
135977
137312
138130
138520
200683
201781
204186
207448
213488
221387
236856
263356
178483
147444
138051
138255
137033
138021
138450
200648
201727
203854
207509
212645
221418
234871
257584
186442
150070
140591
137962
138605
137967
138388
200626
201705
203799
207518
212566
220434
234770
257433
186326
149920
142220
139320
138514
137887
138321
200584
201665
203873
207584
212541
220374
234703
257353
186292
149870
142144
139297
138468
137853
138287
200588
201667
203784
207547
212528
220358
234687
257342
186280
149860
142141
139253
138436
137858
138291
200573
201651
203748
207430
212528
220387
234724
257387
186295
149890
142172
139285
138490
137908
138327
200569
201667
204072
207319
213495
221376
234788
257520
186392
150068
140616
137944
136947
137931
138359
200567
201678
204100
208269
213228
223052
236470
263043
177917
147939
138358
135866
137194
138008
138397
200550
201661
204075
208221
215092
222472
240392
262969
178157
142335
135071
136507
137383
138076
138431
200533
201645
204060
208214
215096
222291
240336
262959
178185
142299
135254
136638
137437
138100
138442
200512
201624
204035
208182
215056
222156
240326
262973
178177
142296
135359
136706
137458
138102
138437
197680
198759
201086
205053
211312
220535
234399
249972
29260.8
95629
114100
122599
127374
130116
131308
197658
198736
201062
205028
211278
220488
234355
249883
29292.1
95581.3
113950
122522
127341
130093
131290
197623
198692
201003
204941
211128
220388
234258
249774
29256.8
95509.6
113810
122516
127344
130086
131282
197579
198632
200903
204714
210716
220091
233885
249545
29272.2
95500.1
114393
122322
127305
130054
131262
197507
198521
200730
204626
210396
219140
233426
248754
29719.5
98532.7
115449
123428
127315
130096
131270
197409
198387
201036
204544
209985
218654
233034
248177
29728.3
98772.4
116082
123261
128257
130173
131306
197377
198349
201011
204483
209818
218534
232863
247992
29811.5
98846.8
116143
123889
128214
130178
131303
197343
198293
200981
204414
209787
218474
232790
247899
29793.8
98852.7
116174
124275
128204
130189
131295
197339
198312
200951
204397
209771
218457
232773
247881
29799.3
98843.3
116161
124263
128171
130150
131274
197334
198312
200959
204431
209775
218486
232816
247940
29721.7
98812.3
116101
123885
128179
130117
131249
197393
198407
200616
204425
209904
218581
232968
248104
29686.8
98715
115995
123184
127235
130011
131182
197428
198480
200749
204560
210369
219514
233322
248746
29697
97171.9
114187
122222
127195
129938
131144
197432
198501
200812
204747
210932
220013
233854
249397
29219.2
95319.9
113694
122384
127202
129937
131130
197429
198507
200832
204796
211043
220244
234061
249557
29297.3
95459.6
113806
122359
127166
129911
131104
197413
198491
200817
204782
211038
220255
234104
249609
29217.3
95484.9
113922
122400
127162
129897
131086
192953
193682
195144
197353
200645
207122
214878
232606
2294.56
69516.9
99238.2
111486
119172
123402
125241
192933
193661
195123
197332
200625
207082
214839
232429
2294.99
69513.4
99156.2
111501
119183
123406
125245
192898
193620
195081
197311
200564
207015
214751
232347
2295.27
69604.8
99306.8
111712
119295
123476
125291
192855
193557
194999
197188
202160
206879
214534
232240
2295.42
69868.6
96862.8
112296
119492
123562
125355
192780
193446
194846
198493
202151
208129
215338
231840
2290.18
65805.5
96313.8
111917
119817
123771
125460
192675
193307
196048
198500
202785
208559
215196
231477
2289.76
66178.5
95999
111946
119899
123884
125592
192643
193268
196091
198449
203041
208458
215086
231455
2289.86
66393.6
96165.3
111644
119989
123917
125615
192618
193225
196051
199005
203020
208405
215031
231095
2291.27
66434.6
96246.6
111553
119958
123938
125625
192608
193233
196028
198981
203002
208387
215014
231185
2290.62
66435.6
96233
111540
119938
123891
125588
192599
193232
196021
198378
202986
208409
215034
231395
2290.01
66357.2
96123.3
111617
119928
123831
125536
192668
193334
194733
198399
202696
208473
215118
231366
2289.64
66101.3
95940.2
111834
119739
123688
125375
192705
193406
194847
197036
202051
206789
214415
231782
2290.11
67164.8
97190.3
112200
119387
123450
125240
192709
193431
194892
197119
200367
206740
214437
232045
2295.58
69599.8
99200.1
111590
119158
123332
125144
192706
193434
194894
197102
200389
206830
214555
232136
2295.05
69466.4
99022.4
111347
119014
123229
125063
192687
193416
194877
197084
200372
206849
214593
232171
2294.98
69417.8
99070.9
111297
118967
123188
125022
186954
187186
187554
187735
190547
192231
197084
2311.87
68041.2
97006.6
108195
115701
119823
121734
186946
187182
187557
187761
190538
192227
197083
2313.1
68077
96999.7
108298
115737
119851
121753
186937
187177
187574
187855
190646
192257
197079
2316.69
68116.8
97366.5
108515
115876
119964
121831
186935
187174
187597
188090
191149
192308
196876
2322
68426.5
93055.2
109348
116146
120144
121950
186909
187140
187639
190265
191377
194258
197520
2288.86
60722.6
90971
107565
116563
120414
122106
186852
187127
189424
190390
192796
195144
197333
2290.78
61238.7
89963.5
107779
115725
120585
122271
186846
187113
189498
190422
193492
195065
197312
2291.6
61646.5
90278.8
106598
115913
120614
122296
186826
187089
189471
191486
193435
195042
197309
2295.05
61785.2
90432.5
106063
115972
120628
122322
186811
187078
189446
191456
193417
195021
197290
2293.54
61795.6
90421.2
106052
115931
120588
122269
186779
187054
189409
190343
193431
195012
197249
2291.65
61612.6
90237.7
106595
115841
120532
122218
186798
187029
187528
190246
192713
195075
197247
2290.56
61165.4
89921.3
107672
116485
120333
122021
186787
187026
187449
187941
191172
192249
196455
2287.06
63390.4
93446.5
109256
116042
120032
121835
186751
186991
187388
187668
190559
192088
196816
2319.78
68097.7
97261.3
108393
115741
119822
121684
186723
186957
187333
187534
190395
192026
196867
2313.39
68013.4
96865.3
108144
115569
119674
121572
186691
186925
187293
187471
190265
191970
196829
2310.73
67938.1
96837.8
108006
115497
119611
121517
180390
180225
179818
178940
179151
176335
173018
27543.9
53138.5
95147.7
104304
111893
116913
119788
121213
180396
180236
179837
178979
179188
176394
173092
26687.3
53471.7
95261.8
104332
111986
116941
119813
121228
180417
180267
179890
179086
179343
176560
173288
26858.2
54914.1
85125.8
105061
112153
117048
119902
121290
180472
180346
179999
179268
179527
176783
173488
27862.9
39853.7
85867.8
100223
112607
117228
120051
121391
180514
180389
180164
181501
180297
179077
175281
32278.2
41598.7
77858.2
97933.1
110022
117487
120244
121518
180536
180505
182085
181762
181746
180224
175339
32229
44729.8
78817.1
96782.5
110215
116012
120374
121645
180562
180535
182160
181922
182596
180330
175495
32542.6
45885.3
79328
97142.5
108729
116147
120413
121671
180551
180524
182166
182968
182698
180376
175619
33225.7
47461.8
79575.4
97312.6
107993
116190
120418
121691
180528
180500
182132
182940
182677
180352
175586
33157
47229.7
79560.4
97304.8
107988
116177
120386
121642
180465
180436
182048
181837
182541
180262
175399
32461.2
45619.1
79280.7
97102.3
108720
116123
120322
121590
180406
180281
180058
181488
181610
180110
175217
32324.6
44428.7
78710.5
96738.8
110141
117412
120163
121434
180327
180202
179857
179130
179572
176710
173402
31820.1
40472.3
80575.7
100627
112512
117123
119939
121276
180234
180086
179712
178915
179211
176463
173292
27345.3
55779.7
85275.7
104955
112029
116912
119758
121143
180176
180018
179623
178774
179048
176256
173040
26922.9
53752.5
95123.6
104190
111828
116771
119636
121047
180132
179969
179566
178697
178907
176112
172847
26813.3
52931.6
94969.3
104125
111698
116706
119574
120994
173884
173484
172601
170783
167227
164345
152901
123354
110956
115650
116444
119043
120870
122147
122879
173898
173502
172626
170825
167306
164441
153022
123488
111108
115659
116438
119051
120854
122147
122874
173931
173547
172685
170958
167611
164691
153354
123900
111628
110565
116695
118978
120877
122169
122887
174018
173667
172845
171284
170455
165167
153850
124984
106139
110584
112957
118893
120883
122212
122915
174104
173771
173119
173312
171081
167746
156956
121967
104552
105083
110774
116381
120838
122273
122954
174187
173984
174862
173758
172530
169023
158110
122925
104934
105429
109669
116374
119231
122273
123014
174236
174044
174880
173970
173307
169171
158528
123742
105333
105683
109861
114946
119253
122282
123013
174236
174045
174897
174797
173398
169239
158767
124565
105501
105839
109988
114235
119260
122266
123021
174202
174009
174860
174785
173376
169216
158719
124446
105482
105819
109980
114233
119252
122254
122986
174118
173917
174770
173890
173251
169100
158404
123548
105224
105634
109829
114946
119252
122221
122959
173999
173666
173015
173344
172344
168905
157931
122697
104840
105382
109630
116323
120760
122191
122869
173876
173526
172705
171145
170431
165620
154546
121816
104628
106747
112934
118796
120777
122100
122799
173752
173369
172510
170787
167451
164749
153578
124418
111498
110391
116585
118850
120738
122023
122738
173682
173288
172416
170620
167114
164338
153087
123732
111140
115529
116287
118887
120679
121966
122690
173630
173233
172355
170542
166999
164165
152791
123451
110934
115482
116254
118840
120659
121929
122658
167742
167252
166286
164803
162295
159414
168694
146715
132852
127981
125725
125252
125069
125236
125408
167750
167263
166293
164783
162266
159340
168607
146624
132580
127804
125579
125162
125008
125206
125381
167774
167295
166314
164785
162769
161668
167540
146362
132400
125697
125222
124907
124935
125161
125350
167852
167403
166440
164871
164373
161862
165213
148101
131702
125131
123015
124594
124853
125102
125314
167938
167506
166645
166495
164588
162937
162103
150493
131658
123621
121742
122826
124640
125084
125274
168027
167701
168140
166840
165567
163387
161990
150695
131589
123367
121073
122689
123359
124989
125282
168071
167743
168152
166936
166115
163393
162049
150732
131648
123345
121024
121651
123301
124973
125258
168082
167781
168145
167640
166136
163391
162057
150724
131704
123374
121043
121112
123289
124959
125259
168037
167710
168110
167630
166120
163380
162051
150732
131692
123367
121036
121104
123279
124946
125230
167960
167636
168050
166832
166079
163351
162015
150706
131616
123343
120999
121664
123301
124935
125226
167835
167404
166545
166465
165417
163325
161944
150652
131578
123370
121073
122643
124561
125000
125187
167713
167264
166303
164743
164204
162027
162232
150391
131665
124127
122771
124494
124744
124986
125196
167598
167121
166144
164623
162618
161631
166871
146306
132057
125356
125113
124777
124793
125012
125198
167537
167053
166089
164589
162094
159211
168256
146426
132477
127670
125426
124995
124830
125021
125194
167491
167004
166045
164572
162085
159247
168551
146577
132711
127809
125534
125047
124854
125014
125184
162002
161493
160475
159109
156964
152608
145718
144968
137234
133125
130292
128919
128130
127847
127736
161998
161488
160460
159031
156849
152476
145840
144690
137040
132984
130168
128829
128068
127806
127701
161999
161486
160444
158857
156727
155293
151277
145277
137279
132237
129835
128565
127953
127740
127656
162046
161544
160475
158795
158148
155243
151754
145968
137588
131830
129056
128319
127854
127638
127606
162105
161617
160583
160361
158244
156374
152591
146223
137769
131675
128557
127473
127705
127607
127539
162176
161762
161937
160533
159196
156862
152391
145923
137567
131409
128193
127297
126926
127507
127521
162198
161781
161897
160520
159629
156750
152209
145810
137472
131277
128008
126840
126843
127485
127492
162211
161833
161875
161210
159595
156692
152136
145758
137439
131242
127925
126639
126804
127474
127488
162165
161748
161843
161206
159585
156689
152136
145758
137438
131238
127920
126625
126801
127458
127464
162109
161698
161839
160471
159602
156735
152211
145807
137467
131267
127996
126844
126846
127452
127464
162003
161517
160491
160280
159083
156830
152401
145914
137563
131411
128186
127288
127624
127522
127451
161909
161408
160339
158674
158050
155163
152033
146307
137744
131665
128840
128217
127742
127520
127485
161825
161315
160277
158700
156589
155212
151450
144966
137010
131955
129708
128425
127806
127588
127501
161788
161281
160259
158843
156681
152331
145714
144567
136911
132839
130008
128656
127886
127618
127511
161754
161248
160238
158884
156760
152429
145557
144819
137067
132942
130095
128710
127911
127622
127508
156660
156139
154996
153380
151015
147044
142314
141036
136497
134167
132067
130861
130070
129684
129481
156646
156121
154972
153313
150883
146881
142297
140828
136451
134110
132044
130841
130046
129655
129456
156626
156086
154944
153167
150654
149347
145183
141772
137679
134351
132002
130697
129983
129620
129428
156647
156113
154955
153103
152390
149258
144840
142174
137933
134135
131949
130717
129939
129551
129404
156676
156159
154971
154675
152358
150195
146253
142228
137935
134354
131871
130467
129909
129535
129361
156734
156255
156214
154730
153243
150538
145926
141908
137682
134124
131731
130417
129608
129468
129336
156733
156253
156175
154642
153578
150356
145669
141693
137511
133974
131568
130242
129552
129466
129314
156731
156265
156173
155337
153493
150266
145544
141588
137427
133904
131494
130138
129535
129446
129306
156700
156220
156139
155335
153490
150265
145544
141587
137426
133902
131490
130130
129534
129437
129284
156667
156191
156134
154621
153556
150349
145667
141690
137506
133965
131559
130223
129532
129411
129276
156575
156059
154875
154581
153172
150522
145924
141902
137674
134116
131700
130393
129822
129446
129270
156510
155979
154824
152980
152287
149117
145794
142239
137903
134194
131812
130604
129820
129429
129281
156454
155916
154779
153010
150509
149295
144940
141569
137457
134195
131866
130553
129831
129464
129270
156437
155915
154771
153121
150704
146716
142136
140678
136296
133949
131873
130659
129858
129463
129262
156413
155895
154758
153151
150799
146844
142118
140849
136304
133968
131858
130644
129846
129454
129250
151835
151332
150183
148503
146327
142481
139337
137994
135549
134296
132933
132022
131325
130938
130719
151813
151303
150141
148443
146177
142223
139119
137824
135519
134267
132937
132036
131331
130928
130711
151779
151243
150086
148314
145921
144416
140685
138502
136439
134656
133020
132011
131348
130938
130713
151771
151236
150047
148183
147465
144110
140344
138626
136559
134513
133164
132153
131373
130938
130730
151766
151242
149993
149617
147170
144898
141047
138558
136418
134762
133282
132122
131465
130964
130738
151807
151260
151143
149528
147940
145075
140695
138153
136116
134568
133281
132201
131363
130979
130729
151780
151227
151083
149364
148140
144833
140339
137834
135882
134415
133180
132215
131372
131006
130727
151763
151198
151064
150072
148022
144713
140148
137665
135759
134333
133119
132158
131398
130993
130722
151747
151195
151052
150067
148019
144712
140148
137664
135756
134328
133114
132151
131390
130976
130697
151740
151195
151075
149374
148124
144829
140339
137831
135873
134400
133167
132172
131329
130918
130668
151665
151142
149896
149500
147915
145057
140691
138146
136104
134550
133235
132120
131375
130872
130644
151635
151101
149915
148057
147264
143900
140884
138531
136382
134575
133113
132035
131250
130812
130603
151606
151072
149919
148153
145768
144194
140349
138223
136189
134509
132874
131859
131191
130778
130551
151603
151095
149937
148245
145986
142042
138942
137652
135344
134091
132755
131848
131138
130732
130513
151587
151085
149941
148267
146099
142263
139124
137784
135336
134082
132712
131796
131094
130704
130483
147655
147163
146096
144311
142299
137663
134306
135094
134571
134177
133384
132708
132136
131784
131578
147624
147126
146029
144247
142174
137529
134193
134937
134462
134130
133370
132730
132151
131787
131584
147576
147052
145943
144119
142151
140093
136222
135079
134788
134302
133488
132779
132216
131826
131609
147539
147013
145832
144045
143196
139444
135625
134696
134541
134249
133632
132949
132281
131877
131655
147497
146977
145728
145274
142696
140270
136763
133963
134135
134375
133844
133044
132443
131946
131709
147517
146926
146755
145071
143371
140379
136707
133093
133581
134205
133945
133234
132446
132023
131732
147466
146862
146670
144823
143460
140064
135955
132418
133242
134070
133901
133334
132514
132075
131754
147442
146815
146639
145527
143332
139904
135596
132113
133086
133997
133858
133311
132563
132079
131754
147433
146829
146646
145522
143327
139906
135601
132113
133082
133988
133850
133301
132541
132044
131723
147449
146860
146687
144858
143441
140064
135977
132428
133231
134045
133879
133279
132451
131960
131668
147394
146875
145630
145144
143372
140332
136737
133121
133574
134172
133889
133100
132350
131850
131613
147401
146877
145698
143917
142906
139027
135928
133951
134066
134221
133641
132826
132154
131747
131524
147401
146878
145773
143953
141991
139658
135584
134613
134469
134148
133334
132620
132054
131661
131443
147412
146916
145821
144043
141976
137338
134004
134750
134275
133942
133177
132534
131953
131586
131381
147405
146914
145850
144069
142062
137433
134080
134868
134344
133950
133153
132474
131899
131545
131338
144165
143656
142674
140727
138570
133555
129120
131877
133341
133688
133450
132990
132582
132282
132110
144125
143615
142576
140594
138457
133337
128640
131697
133264
133701
133470
133034
132603
132294
132121
144067
143533
142454
140339
138250
135526
129166
130855
133151
133801
133649
133145
132689
132351
132160
144017
143492
142335
140453
139307
134545
126667
128749
132554
134025
133855
133368
132784
132427
132219
143952
143454
142234
141673
138933
135201
123872
118218
131145
134189
134183
133584
132988
132519
132297
143966
143375
143168
141520
139670
136014
122701
109802
130327
134151
134384
133842
133097
132623
132341
143907
143295
143096
141234
139748
135880
121342
107031
130121
134142
134421
133995
133185
132683
132379
143882
143238
143086
141871
139694
135774
120947
106535
130036
134127
134413
134008
133250
132693
132379
143873
143261
143068
141864
139679
135774
120951
106535
130027
134114
134401
133995
133224
132651
132346
143898
143307
143101
141277
139698
135864
121389
107128
130095
134101
134386
133935
133112
132558
132275
143849
143350
142133
141594
139625
135869
122881
110396
130292
134092
134326
133666
132893
132421
132198
143877
143354
142199
140321
139050
133944
124528
119580
131182
134042
133943
133240
132654
132294
132085
143890
143357
142280
140169
138084
134985
127847
129862
132820
133718
133487
132980
132522
132182
131990
143911
143402
142365
140385
138253
133137
128441
131499
133067
133504
133270
132832
132399
132088
131915
143911
143404
142423
140479
138326
133316
128883
131640
133106
133452
133212
132750
132340
132039
131865
141368
140891
140017
138305
136098
132108
126862
130031
132654
133241
133383
133025
132751
132488
132352
141331
140860
139953
138251
136004
131937
126230
129979
132704
133367
133449
133091
132779
132506
132366
141275
140795
139850
138128
135637
133179
125882
127099
132264
133538
133699
133262
132876
132576
132410
141230
140754
139799
138145
136973
133051
124999
124013
132302
134149
134005
133529
132988
132661
132473
141162
140729
139681
139144
136910
134021
128558
123829
132649
134556
134441
133830
133194
132761
132558
141166
140648
140453
139057
137402
134731
130087
126903
133107
134894
134741
134112
133403
132868
132607
141105
140588
140366
138832
137425
134950
130332
127362
133399
135061
134871
134316
133494
132928
132647
141089