/*--------------------------------*- C++ -*----------------------------------*\
| =========                 |                                                 |
| \\      /  F ield         | OpenFOAM: The Open Source CFD Toolbox           |
|  \\    /   O peration     | Version:  v2012                                 |
|   \\  /    A nd           | Website:  www.openfoam.com                      |
|    \\/     M anipulation  |                                                 |
\*---------------------------------------------------------------------------*/
FoamFile
{
    version     2.0;
    format      ascii;
    class       volScalarField;
    location    "0.001";
    object      p_rgh;
}
// * * * * * * * * * * * * * * * * * * * * * * * * * * * * * * * * * * * * * //

dimensions      [1 -1 -2 0 0 0 0];


internalField   nonuniform List<scalar> 
449343
(
201073
200856
200358
199458
197982
195739
192616
188663
184127
179431
175022
171261
168355
166395
165412
201077
200860
200362
199461
197983
195738
192615
188664
184130
179436
175028
171265
168357
166396
165412
201084
200866
200368
199465
197984
195736
192611
188662
184135
179446
175040
171274
168363
166398
165412
201093
200875
200376
199471
197985
195731
192605
188657
184139
179460
175058
171289
168371
166402
165413
201103
200885
200385
199476
197982
195722
192593
188650
184142
179478
175082
171309
168382
166407
165415
201112
200894
200392
199479
197980
195714
192581
188645
184152
179498
175110
171330
168395
166413
165418
201119
200900
200396
199480
197976
195707
192575
188643
184161
179517
175131
171347
168406
166418
165421
201121
200902
200399
199482
197978
195707
192564
188611
184147
179520
175139
171355
168411
166421
165423
201119
200901
200397
199481
197978
195709
192577
188645
184164
179520
175135
171351
168410
166422
165425
201114
200896
200394
199482
197983
195718
192586
188650
184158
179504
175118
171338
168403
166420
165426
201106
200888
200388
199479
197987
195727
192599
188657
184150
179487
175092
171319
168393
166418
165426
201097
200879
200380
199475
197990
195737
192613
188667
184150
179472
175071
171303
168385
166416
165427
201088
200870
200372
199471
197991
195744
192621
188673
184147
179460
175055
171290
168379
166414
165429
201081
200864
200366
199466
197990
195747
192625
188676
184144
179451
175044
171283
168375
166414
165430
201078
200860
200363
199464
197989
195748
192626
188676
184142
179447
175040
171279
168374
166414
165431
201286
201133
200764
200048
198787
196708
193551
189309
184284
179079
174292
170327
167340
165357
164370
201290
201137
200768
200052
198789
196708
193550
189309
184289
179086
174299
170331
167342
165357
164369
201298
201146
200777
200060
198793
196705
193544
189307
184296
179102
174314
170341
167345
165356
164368
201309
201157
200788
200070
198796
196697
193530
189293
184301
179125
174342
170358
167351
165357
164366
201321
201170
200801
200079
198798
196681
193502
189256
184295
179159
174381
170382
167361
165359
164364
201332
201181
200812
200089
198794
196665
193487
189245
184320
179219
174431
170410
167374
165362
164364
201340
201189
200819
200087
198786
196659
193485
189245
184332
179254
174469
170437
167387
165366
164365
201343
201192
200823
200093
198792
196661
193479
189102
184316
179256
174479
170446
167392
165369
164367
201341
201190
200820
200089
198788
196661
193488
189247
184335
179258
174473
170441
167391
165370
164369
201334
201183
200814
200092
198797
196669
193492
189251
184326
179226
174439
170418
167382
165370
164372
201324
201172
200804
200083
198802
196686
193509
189264
184304
179169
174392
170394
167373
165371
164376
201313
201161
200792
200074
198801
196703
193538
189303
184313
179138
174356
170372
167366
165372
164381
201302
201150
200781
200065
198800
196713
193554
189319
184309
179117
174331
170358
167362
165374
164385
201294
201142
200773
200058
198796
196716
193560
189322
184304
179103
174316
170350
167360
165376
164388
201290
201137
200769
200054
198794
196717
193563
189322
184300
179097
174310
170347
167360
165377
164390
201754
201755
201693
201426
200700
199091
195934
190924
184635
178129
172442
168044
164897
162873
161886
201759
201761
201700
201434
200706
199092
195933
190926
184642
178141
172451
168047
164895
162870
161882
201770
201773
201714
201449
200717
199091
195917
190922
184658
178170
172475
168055
164894
162865
161876
201785
201789
201733
201469
200733
199070
195884
190915
184669
178222
172523
168074
164893
162858
161867
201801
201809
201756
201491
200733
199053
195746
190745
184673
178328
172600
168104
164898
162851
161858
201817
201827
201779
201511
200752
198950
195742
190742
184701
178546
172698
168151
164907
162846
161850
201828
201839
201790
201519
200707
198950
195734
190733
184712
178602
172831
168205
164920
162842
161844
201832
201845
201797
201531
200737
198977
195834
191683
184734
178621
172848
168219
164927
162845
161845
201829
201840
201791
201521
200709
198952
195736
190737
184716
178606
172836
168210
164925
162846
161849
201819
201829
201781
201513
200755
198954
195747
190747
184708
178554
172707
168160
164916
162856
161859
201804
201811
201759
201495
200737
199058
195753
190754
184682
178340
172613
168118
164911
162864
161871
201788
201793
201737
201474
200738
199077
195893
190926
184683
178237
172539
168091
164910
162875
161884
201774
201777
201718
201454
200724
199099
195928
190935
184674
178189
172494
168075
164913
162884
161895
201763
201765
201705
201439
200713
199101
195944
190940
184660
178161
172472
168069
164917
162892
161904
201758
201759
201698
201432
200708
199100
195947
190940
184654
178150
172464
168067
164919
162896
161908
202316
202561
203002
203509
203803
203298
200676
193994
185103
175964
168895
164049
160817
158831
157892
202323
202569
203012
203522
203817
203305
200668
194000
185117
175982
168905
164047
160810
158823
157884
202337
202586
203034
203549
203848
203323
200647
194024
185163
176048
168935
164043
160795
158808
157869
202356
202610
203068
203596
203890
203302
200405
194062
185196
176172
169015
164042
160772
158786
157849
202379
202640
203112
203654
203961
203401
200035
194916
187292
176550
169167
164078
160754
158760
157825
202401
202672
203162
203725
204035
202504
200057
194989
187379
178904
169271
164117
160745
158735
157802
202416
202691
203192
203726
203310
202538
200062
194951
187334
178897
171780
164226
160709
158712
157784
202422
202699
203200
203740
203357
202571
200096
194841
187297
178943
171783
164233
160729
158721
157782
202417
202692
203193
203727
203341
202549
200064
194951
187326
178930
171785
164231
160714
158718
157790
202403
202674
203164
203727
204038
202507
200067
194967
187350
178888
169282
164128
160756
158745
157813
202381
202643
203115
203658
203965
203407
200043
194978
187372
176566
169184
164094
160770
158776
157841
202359
202614
203072
203600
203896
203309
200416
194076
185213
176192
169036
164062
160793
158806
157868
202340
202590
203038
203554
203854
203332
200658
194040
185184
176071
168959
164067
160818
158831
157892
202327
202574
203017
203527
203824
203314
200681
194018
185139
176008
168932
164073
160836
158849
157909
202321
202566
203007
203515
203811
203308
200689
194013
185126
175991
168923
164077
160844
158858
157918
202619
203177
204291
205935
207936
209824
209699
201509
185136
171063
162694
157897
154952
153264
152505
202626
203187
204304
205953
207961
209843
209693
201512
185147
171087
162693
157878
154933
153249
152492
202641
203206
204334
205995
208022
209929
209695
201536
185236
171178
162699
157840
154894
153219
152467
202662
203236
204385
206076
208185
209993
207596
201558
188906
171493
162733
157770
154829
153173
152430
202688
203275
204456
206197
208285
208591
207532
201436
189060
175813
162944
157685
154747
153117
152387
202717
203324
204567
206403
207127
208404
207444
201302
189101
176415
166601
157701
154630
153051
152342
202734
203353
204632
205453
207182
208527
206658
201363
190601
178176
166764
160568
154397
152966
152292
202741
203366
204652
205456
207220
208523
206694
201324
190574
178156
166814
160635
154534
152963
152290
202735
203354
204633
205455
207207
208515
206677
201379
190570
178155
166816
160635
154404
152973
152299
202719
203326
204570
206406
207171
208493
206651
201362
190602
176452
166744
157716
154642
153063
152355
202691
203278
204459
206201
208290
208607
207516
201258
189045
176008
162965
157706
154767
153136
152405
202665
203240
204389
206080
208189
210000
207548
201550
189019
171520
162761
157796
154854
153197
152454
202645
203210
204338
206000
208027
209937
209707
201571
185263
171210
162731
157870
154924
153247
152494
202630
203191
204309
205958
207967
209852
209707
201538
185178
171123
162729
157912
154966
153280
152523
202624
203182
204296
205940
207943
209834
209714
201531
185168
171102
162731
157933
154986
153296
152537
202214
203100
204955
207976
212503
218717
221346
216594
188415
159480
152204
148953
147144
146263
145915
202219
203108
204968
207996
212538
218771
221362
216601
188432
159494
152163
148903
147111
146243
145899
202230
203123
204996
208035
212598
218872
221379
216636
188481
159541
152070
148791
147039
146198
145866
202246
203151
205067
208175
212910
215896
221140
216730
189115
166926
151772
148448
146877
146120
145813
202264
203182
205151
208327
211003
216254
221251
215768
193285
167620
156499
148069
146656
146013
145749
202290
203230
205318
207311
211267
214864
219232
215029
193671
171296
156496
151261
146341
145895
145680
202303
203252
205377
207388
211403
214999
218218
215046
195064
173017
159171
151202
146130
145754
145599
202294
203235
204748
207456
210384
214313
218243
215011
195031
172958
159105
151149
148626
145715
145594
202305
203253
205378
207419
210390
215074
218248
215016
195037
172972
159117
151121
146140
145762
145607
202293
203232
205321
207325
211358
214994
218261
215062
195090
173057
159252
151221
146358
145911
145695
202267
203185
205154
208330
211065
216393
219252
215528
193578
171335
156550
148096
146680
146036
145771
202250
203154
205070
208178
212913
216020
221213
216820
189327
167365
151810
148483
146908
146150
145842
202234
203127
205000
208039
212603
218879
221343
216669
188701
159590
152114
148831
147076
146233
145899
202224
203112
204973
208000
212543
218778
221353
216623
188489
159549
152212
148947
147152
146281
145935
202219
203105
204960
207981
212509
218725
221359
216622
188479
159539
152256
149000
147186
146303
145953
200644
201756
204168
208315
215190
222280
240464
263098
178218
142336
135426
136783
137543
138192
138529
200645
201758
204173
208328
215212
222309
240457
263090
178222
142337
135305
136698
137504
138172
138517
200643
201754
204169
208317
215190
222436
240411
263048
178220
142287
135110
136554
137436
138133
138490
200642
201753
204174
208344
213314
223088
240610
263056
178055
142434
138719
135899
137233
138051
138442
200625
201722
204127
207384
213425
221321
236790
263289
178417
147378
137987
138191
136974
137962
138391
200609
201687
203810
207465
212598
221371
234824
257536
186394
150022
140544
137917
138560
137927
138348
200607
201685
203775
207494
212539
220406
234742
257404
186298
149892
142191
139293
138490
137868
138301
200584
201665
203868
207579
212533
220365
234694
257345
186283
149862
142136
139290
138463
137853
138287
200608
201686
203799
207562
212541
220369
234698
257353
186291
149871
142152
139265
138451
137877
138310
200612
201690
203782
207465
212560
220417
234754
257417
186326
149921
142203
139317
138524
137947
138367
200628
201726
204130
207373
213549
221427
234838
257570
186443
150118
140667
137998
137006
137990
138417
200646
201757
204178
208347
213302
223126
236541
263114
177988
148010
138432
135944
137273
138087
138475
200648
201759
204173
208319
215190
222565
240486
263059
178248
142429
135169
136606
137481
138174
138529
200650
201763
204178
208331
215213
222404
240449
263069
178295
142412
135372
136755
137555
138218
138560
200650
201761
204173
208319
215193
222288
240459
263103
178307
142429
135496
136844
137596
138239
138575
197543
198622
200949
204916
211174
220393
234254
249826
29114.9
95486.7
113962
122461
127237
129979
131171
197540
198618
200944
204910
211161
220365
234230
249757
29165.8
95458.6
113832
122404
127223
129976
131173
197524
198593
200905
204843
211030
220285
234152
249667
29150.1
95406.5
113711
122417
127246
129987
131183
197501
198554
200824
204636
210633
220008
233799
249458
29185.2
95416.7
114309
122244
127227
129975
131184
197448
198462
200671
204562
210333
219074
233358
248687
29652
98465.3
115382
123365
127257
130038
131211
197370
198348
200992
204500
209938
218606
232986
248129
29680.5
98724.6
116034
123217
128213
130134
131267
197357
198329
200986
204458
209790
218506
232835
247963
29783.3
98818.6
116114
123862
128189
130158
131283
197343
198293
200976
204407
209778
218465
232782
247890
29785.2
98844.1
116166
124267
128199
130189
131295
197359
198331
200966
204410
209783
218468
232784
247892
29810.3
98854.4
116172
124274
128185
130170
131294
197374
198352
200993
204466
209805
218517
232846
247971
29752.3
98842.9
116131
123917
128214
130156
131288
197452
198466
200675
204479
209955
218631
233018
248155
29737.1
98765.3
116045
123238
127293
130070
131241
197506
198558
200828
204639
210443
219587
233393
248816
29766.9
97243
114260
122300
127274
130017
131222
197530
198599
200910
204845
211030
220106
233945
249487
29308.7
95413.1
113792
122482
127300
130035
131228
197547
198624
200950
204914
211161
220357
234171
249666
29406.4
95572.4
113924
122476
127283
130028
131222
197550
198628
200954
204919
211175
220388
234234
249737
29346.1
95617.4
114059
122538
127299
130034
131223
192816
193544
195007
197215
200508
206980
214733
232459
2183.64
69374.7
99100.8
111349
119035
123265
125103
192816
193543
195005
197214
200507
206959
214714
232302
2198.72
69390.7
99038.5
111383
119066
123289
125127
192800
193522
194983
197213
200466
206912
214646
232239
2213.66
69501.8
99208.7
111614
119196
123378
125193
192777
193478
194921
197110
202076
206796
214448
232152
2229.17
69785.2
96779.4
112217
119414
123483
125276
192721
193388
194787
198429
202088
208063
215270
231772
2240.27
65738.1
96247.6
111853
119758
123712
125401
192635
193268
196004
198456
202739
208511
215148
231429
2254.86
66130.7
95951.2
111902
119855
123845
125552
192624
193248
196066
198425
203013
208429
215057
231426
2269.25
66365.4
96137.1
111617
119964
123897
125595
192618
193225
196046
198997
203012
208397
215023
231085
2284.9
66426
96238
111544
119953
123938
125625
192627
193253
196043
198994
203013
208398
215025
231195
2298.71
66446.6
96244.1
111551
119953
123910
125607
192639
193271
196055
198412
203016
208439
215064
231425
2312.46
66387.9
96154
111648
119962
123870
125575
192727
193393
194792
198453
202748
208524
215169
231416
2326.26
66151.6
95990.5
111888
119798
123747
125434
192784
193484
194925
197114
202124
206863
214486
231852
2342.42
67235.9
97263.9
112278
119465
123528
125318
192807
193529
194990
197217
200465
206833
214528
232134
2363.88
69693
99298.2
111688
119256
123430
125242
192824
193551
195012
197219
200507
206943
214665
232245
2378.24
69579.2
99140.1
111464
119132
123346
125180
192825
193553
195014
197221
200509
206981
214723
232299
2392.92
69550.2
99208.3
111434
119105
123325
125160
186817
187049
187417
187598
190404
192089
196939
2174.31
67898.9
96869.2
108057
115563
119686
121597
186829
187064
187439
187643
190415
192105
196958
2193.64
67954.3
96882
108181
115619
119733
121636
186839
187079
187476
187757
190543
192154
196974
2215.07
68013.8
97268.4
108417
115778
119866
121732
186856
187096
187519
188012
191066
192225
196790
2238.7
68343.1
92971.8
109269
116067
120066
121871
186850
187081
187580
190201
191313
194192
197452
2242.36
60655.2
90904.8
107501
116504
120355
122047
186813
187088
189380
190346
192750
195096
197285
2256.83
61190.9
89915.7
107735
115681
120546
122232
186827
187094
189474
190397
193464
195037
197284
2271.2
61618.3
90250.6
106571
115889
120594
122276
186826
187089
189466
191479
193426
195033
197301
2288.14
61776.6
90423.9
106054
115967
120628
122322
186830
187098
189461
191468
193428
195032
197301
2302.1
61806.6
90432.3
106064
115946
120608
122288
186818
187094
189444
190377
193461
195043
197280
2313.92
61643.3
90268.3
106627
115876
120571
122257
186857
187088
187587
190300
192764
195125
197297
2326.1
61215.6
89971.5
107726
116544
120391
122080
186865
187105
187527
188020
191245
192323
196526
2334.13
63461.6
93520.1
109334
116121
120111
121914
186849
187089
187486
187766
190652
192181
196906
2407.76
68190.9
97359.4
108491
115839
119920
121782
186840
187075
187450
187652
190508
192139
196977
2419.11
68126.2
96983
108262
115687
119792
121690
186829
187062
187430
187609
190398
192103
196959
2434.16
68070.6
96975.2
108143
115635
119748
121654
180252
180088
179680
178802
179009
176192
172873
27397.3
52996.2
95010.4
104166
111755
116775
119651
121075
180278
180118
179720
178862
179066
176271
172967
26560.4
53349.1
95144.1
104214
111869
116823
119696
121111
180319
180169
179791
178988
179240
176457
173183
26750.9
54811.1
85022.8
104963
112055
116950
119803
121192
180393
180267
179921
179190
179444
176699
173402
27775.2
39767.9
85784.5
100140
112528
117149
119972
121312
180455
180330
180105
181438
180233
179010
175214
32210.1
41531.2
77790.8
97866.9
109958
117428
120185
121459
180497
180466
182041
181717
181700
180176
175291
32180.6
44682
78769.3
96734.7
110171
115968
120335
121605
180543
180515
182136
181898
182568
180302
175467
32513.8
45857.1
79299.8
97114.3
108703
116123
120393
121652
180551
180524
182161
182961
182690
180368
175610
33216.5
47453.3
79566.8
97304
107984
116185
120418
121691
180547
180520
182146
182953
182688
180363
175597
33167.5
47240.7
79571.5
97315.9
107999
116192
120406
121662
180504
180476
182082
181872
182572
180292
175430
32491.2
45649.7
79311.3
97132.9
108752
116158
120361
121629
180465
180340
180117
181542
181661
180161
175268
32374.3
44479
78760.8
96789.1
110195
117471
120222
121493
180405
180280
179936
179209
179645
176784
173474
31889.4
40542.1
80646.9
100700
112591
117202
120018
121355
180333
180184
179810
179013
179305
176556
173383
27434.2
55872.9
85368.9
105053
112127
117010
119856
121241
180294
180136
179741
178892
179161
176369
173150
27031.4
53865.3
95241.3
104308
111945
116888
119753
121164
180269
180106
179703
178835
179040
176244
172977
26941.4
53064
95106.6
104262
111835
116843
119711
121132
173747
173347
172463
170645
167090
164202
152756
123209
110814
115513
116307
118905
120733
122009
122742
173780
173385
172509
170707
167188
164319
152897
123363
110986
115542
116320
118934
120736
122029
122756
173833
173448
172587
170860
167513
164588
153249
123794
111525
110462
116597
118880
120779
122071
122789
173939
173589
172766
171206
170371
165084
153764
124899
106054
110501
112874
118814
120804
122134
122836
174046
173712
173060
173248
171017
167679
156889
121900
104485
105016
110708
116317
120779
122214
122895
174148
173944
174818
173714
172483
168976
158062
122877
104887
105381
109621
116330
119187
122234
122975
174217
174024
174855
173946
173278
169142
158500
123714
105305
105655
109832
114919
119229
122262
122994
174236
174045
174892
174790
173389
169231
158759
124557
105493
105830
109980
114227
119255
122266
123021
174222
174029
174875
174797
173387
169227
158730
124457
105493
105830
109991
114244
119267
122274
123006
174157
173956
174804
173924
173282
169131
158434
123579
105255
105665
109860
114978
119286
122260
122998
174058
173725
173074
173398
172395
168955
157981
122747
104891
105432
109681
116377
120819
122250
122928
173954
173605
172783
171223
170505
165694
154617
121886
104698
106818
113008
118874
120855
122178
122877
173850
173467
172608
170885
167550
164842
153669
124508
111591
110484
116683
118948
120836
122121
122836
173800
173406
172534
170738
167232
164451
153197
123842
111253
115647
116404
119004
120797
122083
122808
173768
173370
172493
170680
167137
164298
152921
123581
111066
115620
116392
118977
120796
122066
122795
167604
167115
166149
164665
162158
159277
168552
146573
132714
127843
125587
125114
124931
125098
125271
167632
167145
166176
164666
162148
159222
168485
146501
132463
127686
125461
125045
124890
125088
125263
167676
167197
166216
164687
162671
161565
167437
146259
132297
125594
125124
124809
124837
125063
125252
167774
167324
166361
164793
164289
161778
165130
148015
131616
125047
122932
124515
124774
125023
125236
167879
167447
166586
166431
164525
162870
162035
150426
131591
123553
121675
122762
124581
125025
125215
167988
167662
168095
166796
165521
163339
161942
150647
131541
123319
121025
122645
123315
124950
125243
168051
167724
168127
166911
166087
163365
162021
150704
131620
123317
120996
121624
123276
124954
125239
168082
167781
168140
167633
166127
163382
162049
150715
131696
123365
121035
121103
123284
124959
125259
168056
167730
168125
167642
166131
163391
162062
150743
131703
123378
121047
121115
123294
124966
125250
167999
167675
168085
166866
166109
163382
162046
150736
131647
123373
121030
121696
123336
124974
125265
167894
167463
166603
166519
165469
163375
161994
150702
131629
123420
121124
122697
124620
125059
125246
167791
167343
166382
164822
164277
162101
162303
150461
131735
124198
122845
124573
124823
125065
125275
167696
167219
166242
164721
162716
161724
166964
146400
132151
125449
125212
124875
124891
125110
125296
167655
167171
166207
164707
162212
159329
168369
146539
132595
127787
125544
125113
124948
125139
125312
167628
167141
166182
164709
162223
159385
168684
146710
132848
127946
125671
125184
124991
125152
125321
161865
161355
160338
158971
156826
152470
145580
144831
137097
132988
130155
128782
127993
127710
127598
161881
161370
160342
158913
156731
152358
145722
144572
136923
132866
130050
128711
127951
127688
127584
161901
161388
160346
158759
156629
155190
151174
145174
137176
132134
129737
128467
127855
127642
127558
161968
161466
160396
158716
158064
155159
151671
145883
137502
131747
128972
128241
127776
127560
127527
162046
161558
160524
160297
158180
156308
152524
146156
137702
131608
128490
127409
127646
127549
127480
162137
161723
161893
160489
159149
156814
152343
145875
137519
131361
128145
127253
126881
127468
127482
162178
161761
161873
160495
159601
156721
152181
145781
137444
131249
127980
126813
126819
127466
127473
162211
161833
161870
161203
159587
156683
152127
145750
137431
131233
127916
126630
126799
127474
127488
162184
161768
161858
161218
159596
156700
152147
145769
137449
131249
127931
126636
126816
127478
127484
162149
161737
161873
160506
159633
156765
152242
145837
137497
131298
128027
126876
126881
127491
127503
162062
161576
160550
160333
159135
156880
152451
145965
137613
131461
128236
127342
127683
127581
127510
161987
161487
160417
158752
158123
155237
152104
146377
137814
131736
128913
128295
127820
127598
127563
161923
161413
160376
158798
156687
155305
151543
145059
137103
132048
129806
128523
127904
127686
127600
161906
161399
160377
158960
156799
152449
145831
144685
137029
132957
130126
128773
128004
127736
127629
161891
161385
160375
159021
156897
152567
145695
144956
137204
133080
130232
128847
128049
127760
127645
156523
156002
154859
153242
150877
146907
142176
140899
136360
134030
131930
130723
129933
129546
129343
156528
156003
154854
153195
150765
146763
142179
140710
136333
133992
131927
130723
129928
129537
129338
156528
155988
154846
153069
150556
149244
145080
141669
137576
134248
131904
130599
129885
129522
129330
156568
156034
154877
153024
152307
149175
144757
142088
137847
134051
131866
130638
129860
129472
129326
156618
156100
154912
154611
152295
150129
146186
142161
137868
134286
131804
130403
129850
129476
129302
156695
156216
156170
154686
153196
150490
145878
141860
137634
134076
131684
130373
129563
129429
129297
156713
156233
156150
154617
153550
150328
145641
141665
137482
133946
131540
130215
129527
129447
129294
156731
156265
156168
155329
153484
150258
145536
141579
137419
133895
131486
130129
129531
129446
129306
156719
156240
156154
155347
153501
150276
145555
141598
137437
133913
131501
130142
129548
129457
129304
156707
156230
156168
154655
153587
150380
145698
141721
137536
133996
131590
130255
129567
129450
129316
156634
156118
154934
154635
153224
150573
145974
141953
137724
134166
131750
130447
129880
129505
129329
156589
156057
154903
153058
152361
149190
145865
142308
137973
134265
131886
130682
129899
129507
129359
156552
156015
154877
153108
150607
149389
145033
141662
137551
134288
131964
130651
129929
129562
129368
156555
156032
154889
153238
150821
146834
142254
140796
136414
134067
131991
130776
129976
129580
129380
156550
156033
154895
153288
150936
146982
142255
140987
136441
134106
131996
130782
129983
129592
129387
151698
151194
150046
148366
146190
142344
139200
137857
135412
134159
132796
131884
131188
130801
130582
151695
151185
150023
148325
146059
142105
139001
137706
135401
134149
132819
131919
131213
130811
130594
151680
151145
149988
148216
145823
144313
140582
138399
136336
134553
132922
131913
131250
130840
130615
151693
151157
149969
148104
147382
144026
140260
138540
136473
134430
133080
132074
131294
130859
130652
151708
151183
149934
149554
147106
144832
140979
138490
136351
134694
133216
132058
131406
130906
130679
151768
151221
151099
149484
147893
145028
140647
138105
136068
134521
133234
132157
131319
130939
130690
151761
151208
151058
149339
148112
144805
140310
137806
135854
134387
133152
132188
131348
130986
130708
151763
151198
151059
150064
148014
144705
140139
137656
135751
134325
133111
132149
131393
130993
130722
151767
151214
151067
150079
148030
144724
140159
137675
135767
134339
133125
132162
131405
130995
130716
151780
151234
151109
149409
148154
144860
140370
137861
135903
134431
133198
132204
131364
130957
130707
151724
151201
149955
149554
147966
145107
140741
138196
136155
134601
133285
132174
131434
130930
130703
151713
151179
149994
148136
147337
143974
140955
138601
136451
134646
133186
132114
131328
130890
130681
151704
151170
150017
148251
145866
144287
140442
138316
136283
134602
132972
131958
131289
130876
130649
151721
151213
150055
148363
146104
142160
139060
137770
135462
134209
132872
131965
131256
130849
130631
151724
151223
150079
148404
146236
142401
139261
137921
135473
134219
132850
131933
131232
130841
130621
147518
147026
145959
144174
142162
137525
134169
134956
134433
134039
133246
132570
131998
131647
131441
147506
147009
145911
144129
142057
137412
134075
134820
134344
134013
133252
132612
132034
131670
131466
147477
146953
145845
144021
142053
139990
136119
134976
134685
134199
133390
132681
132118
131728
131511
147461
146935
145753
143967
143112
139361
135542
134610
134456
134166
133549
132871
132203
131798
131577
147438
146918
145669
145210
142632
140204
136695
133896
134067
134308
133778
132980
132384
131887
131650
147478
146887
146711
145027
143324
140332
136659
133045
133533
134157
133897
133190
132402
131983
131693
147447
146843
146646
144799
143432
140036
135927
132390
133214
134042
133873
133307
132490
132055
131735
147442
146815
146634
145520
143324
139896
135587
132105
133077
133988
133850
133302
132558
132079
131754
147452
146849
146661
145534
143338
139917
135612
132124
133093
133999
133861
133312
132556
132063
131743
147488
146899
146722
144892
143472
140094
136008
132459
133261
134076
133910
133311
132485
131999
131708
147453
146934
145688
145198
143423
140382
136787
133171
133624
134222
133939
133154
132409
131909
131671
147480
146955
145776
143996
142980
139101
136000
134020
134136
134292
133714
132905
132233
131826
131603
147499
146976
145871
144051
142089
139751
135678
134707
134563
134241
133432
132718
132152
131760
131541
147529
147033
145939
144161
142094
137455
134122
134868
134393
134060
133295
132652
132070
131704
131499
147542
147051
145988
144206
142200
137570
134217
135006
134482
134087
133291
132611
132036
131682
131476
144027
143519
142537
140589
138432
133417
128983
131740
133204
133550
133313
132853
132445
132145
131973
144008
143498
142459
140477
138339
133220
128522
131579
133146
133583
133352
132916
132485
132176
132004
143969
143435
142355
140241
138152
135423
129063
130752
133048
133698
133551
133046
132591
132253
132062
143938
143414
142256
140374
139224
134462
126584
128664
132469
133941
133771
133289
132706
132348
132140
143894
143395
142175
141609
138869
135134
123805
118150
131077
134122
134117
133520
132929
132461
132238
143927
143336
143124
141476
139623
135966
122653
109754
130279
134103
134336
133798
133053
132583
132301
143887
143275
143072
141209
139720
135852
121314
107003
130093
134114
134393
133968
133160
132663
132359
143882
143238
143081
141863
139686
135766
120938
106526
130027
134119
134404
133999
133245
132693
132379
143892
143280
143083
141876
139690
135785
120962
106546
130038
134125
134412
134006
133238
132671
132366
143938
143346
143136
141311
139729
135894
121419
107159
130126
134132
134417
133967
133147
132597
132315
143907
143409
142192
141648
139676
135919
122931
110446
130343
134142
134377
133720
132952
132480
132257
143955
143432
142277
140399
139123
134017
124599
119650
131252
134113
134016
133318
132732
132372
132163
143988
143455
142378
140267
138182
135078
127940
129955
132913
133811
133585
133078
132620
132280
132088
144028
143519
142482
140503
138371
133255
128559
131617
133185
133621
133388
132949
132517
132206
132032
144049
143541
142561
140617
138464
133453
129020
131778
133243
133589
133349
132887
132477
132176
132003
141231
140754
139880
138168
135961
131970
126724
129893
132517
133104
133246
132888
132614
132351
132215
141213
140742
139836
138134
135886
131819
126112
129862
132586
133249
133331
132973
132662
132388
132248
141177
140697
139752
138030
135539
133076
125779
126996
132161
133435
133601
133164
132778
132477
132312
141152
140676
139721
138066
136890
132967
124915
123927
132216
134065
133921
133451
132910
132583
132395
141103
140671
139623
139080
136846
133955
128491
123762
132582
134488
134375
133766
133135
132702
132499
141127
140608
140409
139013
137355
134683
130039
126855
133060
134847
134693
134067
133359
132829
132568
141085
140569
140342
138807
137397
134922
130304
127334
133371
135032
134842
134289
133469
132909
132627
141089