/*--------------------------------*- C++ -*----------------------------------*\
| =========                 |                                                 |
| \\      /  F ield         | OpenFOAM: The Open Source CFD Toolbox           |
|  \\    /   O peration     | Version:  v2012                                 |
|   \\  /    A nd           | Website:  www.openfoam.com                      |
|    \\/     M anipulation  |                                                 |
\*---------------------------------------------------------------------------*/
FoamFile
{
    version     2.0;
    format      ascii;
    class       volScalarField;
    location    "0.03";
    object      p;
}
// * * * * * * * * * * * * * * * * * * * * * * * * * * * * * * * * * * * * * //

dimensions      [1 -1 -2 0 0 0 0];


internalField   nonuniform List<scalar> 
449343
(
107458
107588
107803
108005
108088
107813
107002
105581
103606
101288
98923.5
96786.6
95069.3
93881.1
93276.3
107446
107577
107793
107997
108082
107808
106999
105582
103610
101296
98933.1
96795.6
95076.5
93886.5
93280.5
107441
107573
107793
107999
108088
107816
107012
105600
103636
101329
98969.7
96831.3
95108.5
93914.6
93306.4
107442
107577
107799
108011
108102
107834
107036
105631
103678
101382
99028.6
96889
95160.5
93961
93349.5
107447
107584
107811
108028
108122
107858
107068
105673
103733
101448
99102.4
96961
95225.3
94018.4
93402.7
107452
107591
107823
108046
108143
107885
107103
105720
103792
101520
99180.1
97036.3
95292.3
94077.5
93457.3
107454
107596
107832
108060
108160
107909
107134
105759
103844
101582
99244.8
97100.3
95348.9
94127.4
93503.5
107451
107594
107833
108065
108168
107923
107152
105783
103874
101620
99284.5
97138.3
95383.1
94158.2
93532.5
107441
107585
107824
108059
108164
107923
107157
105792
103883
101625
99288.2
97142.1
95388.1
94164.2
93539
107424
107567
107806
108040
108147
107907
107141
105774
103859
101594
99256.2
97110.4
95362.2
94143.3
93520.6
107402
107543
107780
108012
108118
107879
107110
105737
103814
101539
99197.4
97054.5
95314.5
94103.1
93484.7
107375
107515
107749
107978
108083
107843
107071
105691
103757
101473
99126
96986.4
95254.7
94051.1
93437.1
107348
107486
107717
107943
108046
107805
107027
105641
103699
101406
99054.8
96918.3
95193.7
93997
93386.8
107322
107459
107688
107911
108012
107768
106988
105596
103646
101349
98994.5
96860.5
95141.2
93949.3
93341.8
107299
107435
107663
107884
107984
107739
106956
105562
103608
101308
98952.7
96820.2
95103.4
93914
93308
107306
107483
107799
108154
108409
108356
107675
106185
103951
101291
98627.2
96293.5
94468.9
93229.4
92604.9
107294
107472
107789
108147
108405
108352
107674
106187
103958
101303
98641.2
96305.8
94478.1
93236.2
92610.2
107289
107469
107790
108152
108413
108363
107687
106209
103990
101346
98688.1
96348.8
94514.5
93267.2
92638.4
107290
107473
107799
108167
108432
108381
107710
106239
104038
101412
98763.6
96418.7
94573.9
93318.1
92685
107295
107481
107813
108189
108460
108405
107746
106288
104094
101498
98861.8
96508.2
94648.9
93381.9
92743
107300
107491
107829
108213
108490
108440
107785
106344
104173
101593
98967.3
96604.4
94728.2
93448.3
92803.1
107303
107496
107841
108231
108511
108474
107826
106396
104244
101681
99068
96690.1
94796.3
93505.5
92854.5
107300
107495
107843
108239
108522
108492
107848
106380
104278
101727
99120.8
96738.3
94836.8
93541
92887
107290
107485
107834
108231
108517
108493
107858
106441
104297
101736
99123.7
96742
94843
93547.8
92894.5
107272
107466
107812
108208
108500
108470
107838
106418
104264
101689
99064.2
96696.1
94811.7
93524.6
92875.4
107249
107440
107782
108173
108463
108435
107805
106373
104201
101616
98980.9
96621.9
94754
93479.1
92835.7
107222
107411
107748
108134
108420
108400
107759
106317
104140
101528
98883.4
96535.3
94683.6
93420.9
92783.7
107194
107381
107713
108094
108378
108359
107714
106265
104071
101443
98792
96452.3
94613.6
93361.1
92729.1
107168
107353
107682
108059
108339
108318
107670
106213
104009
101371
98718
96384.6
94554.7
93309.3
92680.9
107145
107329
107656
108031
108309
108286
107636
106175
103966
101324
98670
96339.6
94513.9
93271.9
92645.4
106918
107203
107744
108459
109177
109683
109394
107726
104801
101244
97847
95068.6
93012.4
91665.2
91000.4
106906
107192
107736
108455
109176
109683
109395
107733
104817
101267
97871.1
95087.8
93026.1
91675
91008.3
106900
107189
107739
108466
109194
109702
109412
107766
104862
101336
97943.2
95147
93072.2
91712.6
91041.7
106901
107194
107753
108490
109227
109725
109422
107807
104908
101439
98064.1
95246
93147.9
91774
91096.5
106905
107205
107775
108526
109272
109746
109424
107821
104960
101595
98223.3
95375.6
93246.3
91852.1
91165.2
106911
107217
107800
108566
109329
109785
109464
107904
105089
101762
98415.4
95522.4
93352.9
91935.4
91237.6
106914
107225
107817
108600
109355
109842
109525
107991
105209
101895
98650.9
95660.8
93451.2
92009.2
91300.9
106911
107225
107822
108613
109379
109885
109595
108003
105277
101968
98726.6
95731.1
93507.9
92056.3
91342.2
106901
107214
107810
108602
109368
109874
109578
108067
105304
101984
98739.6
95739.4
93517.3
92065.9
91352.6
106882
107193
107785
108566
109351
109836
109554
108033
105249
101916
98572.3
95660.5
93470.1
92036.9
91330.8
106857
107162
107744
108515
109287
109800
109521
107960
105137
101779
98405.7
95540.8
93390.6
91979.3
91283.3
106829
107129
107701
108460
109225
109765
109504
107933
105070
101615
98240.5
95410.1
93295.1
91906.8
91221.1
106801
107097
107661
108409
109165
109712
109463
107858
104987
101480
98092.6
95290.3
93204.2
91833.9
91156.7
106775
107068
107626
108366
109115
109659
109409
107786
104901
101372
97984.4
95199.5
93131
91772.4
91101.1
106751
107043
107599
108335
109079
109621
109370
107738
104845
101308
97921.5
95143.8
93083
91730.1
91061.6
106166
106607
107489
108782
110355
111926
112767
110755
106315
100873
96240.1
92853
90530.9
89081.3
88387.3
106152
106595
107481
108780
110358
111931
112765
110769
106339
100910
96276.9
92879.7
90549.3
89094.7
88398.2
106144
106591
107486
108800
110393
111969
112793
110831
106428
101038
96386.7
92957.8
90606.2
89140
88438
106141
106595
107504
108842
110449
112031
112667
110917
106440
101268
96591.8
93092.6
90700.7
89214
88502.8
106143
106606
107535
108898
110539
112040
112004
110753
107372
101630
96878
93287
90827.8
89309.7
88585.2
106147
106621
107580
109000
110678
111316
111963
110841
107600
103046
97252.4
93516.5
90974
89413.3
88673.3
106148
106632
107610
109051
110041
111405
112026
110946
107757
103274
98681.8
93721.7
91109.7
89509.5
88752.4
106144
106634
107622
109073
110065
111473
112128
110962
107892
103434
98806
93826.2
91200
89576.4
88805.5
106133
106619
107604
109057
110064
111473
112130
111084
107952
103488
98871.3
93852.7
91210.4
89590.4
88822.9
106115
106595
107567
109007
110716
111410
112105
111069
107900
103420
97547.9
93744.6
91151.5
89556.1
88798.9
106090
106561
107505
108893
110572
112126
112164
111000
107762
101944
97184.5
93545.1
91037.9
89484.3
88741.8
106064
106525
107452
108817
110463
112097
112800
111123
106713
101558
96869.3
93336.7
90907.8
89392.3
88665.8
106037
106492
107403
108744
110373
111992
112882
110977
106621
101260
96610.1
93163.4
90787.9
89301.2
88587.8
106012
106463
107365
108689
110301
111913
112803
110861
106473
101072
96445.7
93040.4
90695.2
89226.5
88521.8
105989
106438
107336
108654
110258
111866
112762
110799
106399
100984
96361.2
92970.2
90637.7
89177.4
88476.8
104853
105464
106738
108766
111607
115176
118921
116132
108598
99390.7
93088.1
89237.9
86826.6
85410.6
84761.9
104835
105449
106727
108763
111614
115190
118916
116142
108637
99450.4
93134.9
89266.9
86846.6
85425.9
84774.7
104819
105438
106727
108785
111674
115266
118966
116207
108802
99630.7
93272.8
89351.3
86907.9
85476
84818.9
104807
105433
106744
108862
111857
115467
116713
116394
110552
100263
93616.4
89518.4
87011.8
85558.1
84891.1
104797
105433
106776
108945
111984
114021
116787
116480
110872
102828
94059.2
89750.5
87159.9
85665.8
84984.1
104791
105447
106846
109179
111169
114280
116934
116556
111103
103418
96567.1
90104.7
87324.1
85791
85086.1
104782
105443
106857
108606
111270
114460
116124
116084
111720
104731
97099
92175.4
87458.8
85892.5
85177.4
104778
105448
106925
108623
111347
114564
116261
116263
112035
105087
97461.1
92421.9
87686.4
85974.2
85249.5
104764
105428
106848
108608
111342
114580
116297
116380
112157
105236
97554.1
92493.1
87611
86006.6
85272.3
104756
105419
106833
109193
111224
114447
116317
116343
112067
104168
97235.3
90478.6
87592.6
85989.5
85252.9
104737
105381
106743
108944
112036
114214
117047
116835
111433
103699
94589.6
90160.7
87464.2
85901.9
85187.8
104719
105354
106684
108836
111881
115567
116913
116744
111159
100748
94051.9
89877.8
87297.8
85791.9
85098.5
104699
105327
106635
108722
111652
115297
119087
116481
109078
99959.6
93595.2
89636.2
87149.4
85682.4
85006.6
104679
105302
106597
108661
111549
115170
118974
116292
108826
99683.1
93370.9
89484.4
87038
85594.1
84929.8
104659
105280
106570
108624
111500
115110
118927
116202
108725
99558.4
93262.7
89401.3
86971.6
85538.2
84879.2
102732
103465
105053
107779
112129
118990
124524
129708
115741
94412.1
87175.7
83673
81651.5
80590.2
80142.5
102707
103441
105032
107768
112136
119004
124521
129710
115756
94460.7
87212.4
83692.1
81667.5
80604.5
80155.3
102677
103415
105013
107760
112165
119079
124539
129744
115811
94551.2
87279.5
83734.3
81718.8
80652.7
80199.8
102645
103391
105010
107824
112566
116946
124685
129926
116007
99357.2
87604.1
83801.7
81805.7
80734.7
80273.7
102608
103354
104986
107905
111379
117271
125081
127703
117689
100440
91227.5
83977
81894.9
80832
80369.9
102580
103324
105046
107513
111527
116413
123437
126882
118156
103303
91899.9
86734.5
82046.1
80941.7
80477.3
102550
103284
105038
107569
111712
116519
122670
127194
119240
104948
94135.5
87176.1
82178.8
81036.7
80574.3
102529
103254
105048
107646
111092
116083
122855
127560
119917
105718
94674.7
87541
84342.4
81100.2
80652.7
102527
103267
105033
107616
111098
116606
122957
127817
120384
106184
94969.2
87651.2
82435.8
81195.4
80697.5
102537
103287
105025
107509
111712
116623
122889
127754
120213
106033
94864.2
87565.5
82443.7
81206.7
80688.5
102534
103289
104941
107898
111438
117511
123588
128368
119001
104152
92499.6
84620.7
82320.8
81136.9
80621.5
102539
103294
104935
107785
112584
117101
124997
130404
116771
100440
88251.6
84304.8
82179.6
81024.3
80522.5
102535
103282
104900
107678
112129
119109
124714
130030
116306
95010.3
87710.5
84103.6
82018.6
80899.2
80418.7
102527
103270
104879
107644
112052
118977
124568
129854
116034
94769.8
87514.2
83962.3
81897.7
80800.8
80332.9
102513
103255
104860
107614
112001
118914
124519
129774
115918
94641.1
87398.3
83875.2
81825.8
80739.6
80277.6
99588.8
100295
101876
104770
109727
116579
133074
162831
119155
86315.8
76515.4
75435.5
74852.8
74708
74687.6
99554.3
100258
101838
104731
109696
116553
133035
162800
119123
86305.2
76509
75428.8
74860.8
74719.1
74698.7
99499.7
100200
101772
104639
109569
116506
132930
162739
119083
86346.9
76446.9
75419.7
74893.7
74758.4
74740.1
99436.8
100129
101690
104413
108955
116859
132940
162621
119035
86663.1
80064.9
75255.3
74944.5
74826.3
74811
99348.3
100020
101492
104487
108976
115989
129995
162524
120443
91141
80221.2
77805.1
74929.5
74909
74904.2
99265.6
99860.7
101954
104536
108734
115983
128635
157678
126125
94098.6
83193.4
78131.8
76966.4
74995.5
75015.1
99213.5
99804.6
101939
104530
108771
115596
128623
157880
127596
95628.4
85403.3
80271
77194.6
75150.3
75134
99167
99760.4
101987
104553
108785
115617
128719
158360
129973
97687.6
86505.9
80858.8
77521.3
75283.7
75203.3
99183.9
99778.7
101935
104571
108819
115661
128843
158873
132319
99284
87241.4
81207.5
77621.9
75337.7
75280.3
99206.2
99809.1
101930
104503
108813
115693
128905
158839
131184
98667.6
87014.3
81103.3
77611.4
75309.8
75259.7
99254.4
99933.3
101424
104454
109002
116125
128925
158405
128043
96345.5
84767.9
78923.3
75463
75268.2
75190.1
99302.7
100006
101588
104342
108834
116851
130187
162963
120468
92494.8
81173.2
75889.1
75388.4
75153.5
75083.8
99327
100035
101625
104521
109490
116492
132991
162874
119676
87151.1
76946.4
75850.3
75230
75024.4
74970.5
99338.9
100052
101649
104567
109565
116475
132983
162846
119408
86720.6
76846.4
75726.5
75106.2
74921.6
74878
99333.9
100047
101645
104562
109550
116437
132979
162819
119336
86575.4
76757.4
75650.8
75032.5
74856.9
74819.1
95368.5
95788.4
96728.6
98473.3
101372
108101
115595
113462
25136.7
55544.7
61369.7
64769.1
66907.2
68246.8
68859.5
95322.8
95739.3
96674
98405.9
101312
108034
115536
113337
24999.1
55439.8
61303.5
64755.4
66917.9
68257.3
68869.5
95247.5
95651.1
96573.8
98310.6
101168
107892
115395
113182
24813.5
55429.6
61302
64825.9
66973.2
68301.2
68911.9
95146.9
95520.6
96414.2
97974.7
102419
107425
115078
112942
24953.5
55828.9
62902.1
65057.7
67099.7
68387.5
68992.3
95016.9
95354.4
96157.5
99086.1
102125
107788
115769
112578
26523.2
59844.9
64939.7
66743.7
67376.1
68550.1
69110.8
94874.2
95192.9
97260.3
98939.1
102575
107989
115486
112039
30857.7
61796.9
66859.1
67357
68875.2
68801.1
69256.8
94807.5
95117.7
97210
98837.6
102809
107900
115326
111685
39092.5
64648.9
68444.3
69101.6
69186.1
69029.9
69414.2
94764.2
95063.2
97160.5
99476
102797
107875
115282
111431
52770.5
68918
70307.6
70529
69556.7
69196.8
69509
94767.8
95080.3
97149.7
99462.5
102804
107905
115339
111456
72866.6
72969.8
71655.4
71072.1
69679.8
69220.1
69567.5
94793.3
95117.8
97190.2
98836.8
102819
107970
115475
111828
69400.5
72120.7
71306.2
70200.2
69622.7
69119.1
69505.1
94892.8
95238.6
96058.6
98952.1
102596
108058
115653
112308
34790.8
66479.1
69431.3
68201.7
67921.3
68913.3
69396.7
94977.5
95359.3
96270.9
97860.3
102249
107093
114800
112808
26769
59883.4
64252.5
65757.7
67562.7
68711.5
69254.7
95031.5
95442.6
96380.7
98141.4
101029
107582
115174
112994
25627
56289.2
61841.4
65265.8
67299
68548.1
69119.7
95061.6
95485.3
96434
98186.5
101117
107842
115349
113133
25095.9
55802.8
61623.9
65031.1
67136.1
68429.3
69017
95065.2
95491.5
96444.6
98208.2
101129
107886
115402
113201
24985.4
55711.8
61575.4
64950.2
67052.1
68359.9
68954.8
90350.7
90240.4
89994.9
89621.9
89521.5
93511.7
97273.6
110561
9454.33
34269.1
47544.5
54764.4
59496.1
62265.1
63510
90299.3
90185.1
89935.5
89556.4
89470
93439.8
97204.8
110343
4139.63
34071.9
47465.1
54771.9
59512
62274.3
63517.2
90216.7
90092.7
89834.4
89486.3
89377.5
93290.1
97054.3
110192
2873.26
34103.4
47576.6
54898.9
59590.6
62329.5
63560.1
90109.8
89955.6
89689.4
89476.8
92109.5
93179.4
96768.1
109982
5480.58
34542.5
47927.1
55322.5
59784.9
62453.2
63652.7
89984.6
89809.5
89597.8
91434.4
92063.5
94948.2
97747
109834
4664.23
34851.3
48978.2
56362.7
60145.7
62686.3
63805.3
89855.4
89751.3
91112
91299.6
93234
95667.4
97529.2
109279
3148.95
36272.3
50222.9
56946.4
61144.6
62969.9
63993.2
89794.4
89700.9
90975.5
91231.3
93829.8
95538.8
97385.1
109022
1909.94
38738.1
51748.7
58111.4
61549.2
63207.1
64158.4
89749.6
89650.4
90903.6
92182.7
93776.3
95495.5
97343.5
108846
12911.6
42729.7
53737.2
59205.5
61927.7
63384.9
64260
89741
89650.7
90888.4
92169
93782.1
95520.1
97391.8
109026
70196.2
49152
55327.4
59743.4
62083.2
63408
64299
89747
89648.2
90925.6
91234.7
93827.8
95595
97496.5
109249
21505.2
47656.4
54950.8
59301.1
61973.7
63293.2
64220.2
89821.5
89652.8
89457
91227.3
93255.6
95725.5
97635.5
109456
41102
42416.5
52934.9
57834.6
60703.2
63017.9
64054
89892.2
89744.6
89494.5
89312.5
92014.6
93218
96869.2
109931
3648.33
36749.9
49551.2
55950.9
60195.9
62721.8
63861.3
89945.7
89827.2
89581
89251.6
89169.7
93090.6
96797.9
109942
3246.1
34827.9
48021
55248.9
59839.9
62506.3
63701.5
89978.9
89869.8
89631.3
89270.2
89201.6
93163.7
96937.1
110071
3662.62
34293.2
47664.5
54951.1
59646.1
62369.2
63591.2
89985.8
89880.1
89644.5
89286.9
89201.8
93220.3
97000.4
110144
2377.54
34106.1
47611.4
54842.1
59553.2
62297.9
63528.6
85248.4
84547.6
83086
80734.9
80292.1
78928.1
81330.1
2303.43
26109.4
40329.4
48758.9
54589.2
58078.1
59700.4
85194.9
84490.4
83025.1
80672
80224
78849.8
81250.5
2293.88
26014.9
40270.3
48765.9
54586.1
58071.7
59692.5
85114.7
84407.8
82927.5
80571.6
80162.7
78757.9
81101.8
2296.09
25833.2
40385.6
48827.4
54620.5
58098.3
59706.3
85023.8
84308
82804.2
80628.6
80353
78610.1
80862
2312.83
26061.5
39337.4
49140.5
54740.4
58180.9
59756.8
84937.6
84217.2
82841.3
82683.8
80805
80635.8
81470.3
2293.73
24077.4
39125.9
48926.5
54979.2
58348
59860.3
84855.5
84260.1
84249.2
82842.9
82066.7
81529.4
81324.8
2844.13
24624.1
39468.7
49290.9
55057.3
58472.7
59997
84802.8
84215.4
84166.4
82874.3
82807
81506
81263.4
2306.43
25699.2
40730.9
49734.4
55389.1
58594
60097.9
84751.1
84170.8
84111.3
83697.3
82881.6
81516.6
81306.7
2405.02
29178
42550.2
50441.3
55621.3
58713.4
60167.6
84731.7
84149.9
84084.1
83697.2
82887.1
81557.4
81410
2207.52
30047
43257.9
50784.1
55744
58742
60208.3
84714
84127.3
84093.3
82829.8
82808.9
81584.4
81457
2179.01
29725.6
42618.9
50515.4
55716
58703.3
60166.1
84725.6
84009.8
82652.6
82510.9
81994.5
81570.4
81469.3
3476.26
27623.1
41329.3
49920.5
55352.2
58575.4
60025.1
84745.7
84034.2
82542.5
80400.1
80217.4
78614.4
80540.6
2295.79
25878.5
40387
49512.8
54984.4
58328.3
59863.2
84775.3
84071.5
82600.3
80264.1
79887.2
78485
80813
2297.98
26158.1
40580.2
48985.9
54721.6
58151.1
59735.8
84801.6
84099.6
82641.8
80307.9
79901.9
78522.9
80912.4
2295.71
26047
40289.9
48785
54580.3
58042.4
59651
84808.3
84109.5
82653.2
80315.9
79874.2
78539.8
80959.5
2296.39
26026.9
40235.6
48683
54508.5
57986.6
59602.3
80993
79751.6
77139.3
72549.7
69994.7
61890
57198.1
3054.56
2297.6
25431.7
38531.6
47089
52973.4
56514.7
58208.6
80931.8
79684.1
77058.4
72447.8
69896.3
61756.6
57020.3
2304.55
2296.73
25279.7
38407.5
47046.7
52919.3
56471.7
58167.4
80839.3
79586.4
76926.3
72252.8
69748.5
61547.7
56822.4
2461.56
2296.5
21599.3
38420.4
46972.9
52849.1
56418.3
58111.7
80736.8
79482.8
76733.9
72074.6
69556.8
61285.3
56700
2288.43
2308.59
22019.2
35650.9
46950.1
52770.7
56370
58050.8
80650
79372.7
76565.6
74948.8
69132.6
64130.8
58518.4
2344.82
2293.7
19734.5
34311.1
45160.3
52711.6
56357.5
58014.2
80571.3
79287.2
78431.9
74705
71044.1
65376.9
58424
2951.89
2274.13
19476
33760.3
45096
51644.6
56275.7
57999.6
80494.7
79199.7
78333.6
74495.8
71831.9
65309.3
58433.2
2991.47
2259.56
20437.3
34633.2
44567.7
51705.6
56236.8
57978.4
80426.6
79139.8
78251.1
75861.2
71767.5
65347.1
58659.9
2217.85
2237.83
40833.1
36757.1
44731.9
51784.2
56262.1
57988.5
80400.1
79107
78221.4
75850.6
71766.5
65432.8
59128.9
10966.6
4180.31
23745.6
36060.1
44835.9
51872.3
56307
58030.7
80384.7
79104
78256.3
74460.5
71828.6
65465.4
58995.3
3153.44
2179.88
21914.6
35150.9
45015
51953.5
56373.7
58066.8
80375.9
79097.6
76295
74709.4
70992.5
65468.9
58829.1
3577.48
2309.4
21260.2
34825.3
45594.9
52851.1
56423.3
58048.3
80383.8
79128.2
76380.2
71738
69156.7
61076.8
56673.3
2484.63
2295.48
21154.7
36070.2
47030.3
52801.1
56345.8
58014.2
80417.4
79162.2
76501.8
71832.8
69276.1
61152.9
56528.9
3146.12
2296.83
21760
38328.1
46897.4
52754.1
56305.4
57992
80451.9
79201.5
76572.3
71962.5
69421.4
61289.8
56574.5
2278.87
2296.48
25060
38175.5
46859.9
52728.9
56281.3
57976.9
80464.3
79219.7
76601.7
72006.7
69470.5
61377.6
56639.2
3380.45
2296.38
25184.6
38210.4
46817.5
52714
56264
57961.7
78425.9
76790.7
73302.4
67103.5
56316.3
45723.6
19626.6
2326.76
2307.27
28438.3
40967.1
49010.8
54439.7
57680.5
59228.3
78347.1
76700.7
73180.1
66940.7
56077.4
45449.8
19663.6
2295.78
2302.81
28070.3
40719.2
48868.3
54317.7
57587.5
59145.4
78222
76562.3
72991.9
66699.5
55684.1
44896.7
19375.6
2283.87
2302.8
22674.7
40381.3
48639
54115.2
57430.3
59006.9
78072.5
76414.2
72742.6
66418.2
59922
44400.9
19407.6
2284.22
2304.75
22654.7
36036.2
48248.3
53810.8
57209
58820.2
77934.8
76266
72563.8
68783.5
59693.1
48139.5
25973.9
2291.76
2296.04
19026.9
33616.6
45014.6
53422.3
56972
58609.3
77815.6
76115.8
74043.7
68589.9
61759.1
49883.2
26403
2252.78
2290.85
17724.6
31761.6
44300.2
51192.1
56691.4
58414.5
77696.7
75973.5
73961.2
68381.2
62605.4
49829.9
26478
2265.67
2306.48
14663.1
30662.5
42478.5
50881.1
56485.3
58259.5
77604.5
75879.5
73859.7
69669.2
62434.1
49794.8
26746.5
2296.18
2249.44
9028.66
30119
41722.8
50746.7
56416.2
58202.7
77569.4
75836.7
73809.7
69619.1
62374
49764.3
27640.4
3984.84
2297.55
2293.29
29997.5
41828
50857.5
56485.2
58246.3
77569.3
75857
73826.6
68239.4
62473.5
49897.8
27645.7
2296.45
3356.06
16321.2
31329.4
42925.4
51143.4
56658.5
58364
77582.7
75898.9
72164.1
68453.6
61562.2
49933.7
27174.1
2207.32
2296.42
19218.2
32589.8
44833.8
53354.5
56871.1
58490.2
77630.1
75957.2
72258.3
65904.6
59444.3
44113.4
21023.5
2300.78
2291.88
20434.3
35883
48056.3
53613.1
57004
58613.7
77705.6
76032.2
72440.5
66121.4
55121.4
44287.5
19037.6
2261.65
2303.31
22373.4
39984.8
48298
53801.2
57134.6
58719.8
77770.1
76110.9
72567.3
66292.9
55432.8
44717.8
19109.8
2255.47
2302.08
27430
40190.9
48421.3
53913.3
57216
58788.2
77799.2
76151.3
72639.9
66402.1
55603.8
45028.8
19284.2
2256.44
2302.07
27673.3
40312.8
48479.8
53969.1
57249.9
58815.2
78177.1
76537.5
73010.7
66868.5
56219.9
43372.9
8026.81
2274.37
10796.8
37020.3
47526.7
54253.1
58678.7
61252
62480
78076.2
76420.3
72840.4
66601.2
55919.7
42524.4
7361.09
2235.16
8809.86
36451.2
47073.4
53993.8
58485.3
61111.9
62359.2
77913.8
76234.6
72576.4
66222.4
55770.9
41213.1
8435.1
2270.84
2316.71
28068.7
46697.1
53627.7
58160
60868.6
62149.4
77717.2
76031.2
72297.5
65914.2
57413.9
40188
9598.03
2286.89
2304.6
27622.5
40989
52988.1
57664.2
60512
61858
77530.5
75843.2
72131.9
66999.3
56890.5
42363.5
18897.8
2300.32
2303.05
22066.5
37312.1
48632.4
57051.7
60100.9
61517.5
77367.1
75672.7
72707.2
66672.1
58060
43378.4
19193.4
2263.5
3540.86
19208
33888.1
47311.2
53924.2
59692
61190.9
77205.7
75480.2
72542
66388.3
58469
43339.9
19820.5
2258.53
2219.92
11523.4
30645.6
44257.7
53252.4
59346.7
60930
77088.7
75346.2
72394.6
67113.5
58110.1
42990.8
21197.9
2278.72
2318.96
2402.45
28304.6
42539.6
52927.4
59197.4
60814.1
77039.5
75291.7
72321.9
67001.9
57886.2
42283.5
16100.3
2319.83
2311.27
4289.08
29194.4
42740.2
53052.4
59273.4
60852.2
77052.4
75325.9
72320.2
66092.5
57996.9
42594.8
19636.1
2295.69
2294.61
16317.3
32114
44765.8
53518.2
59522.6
61022.8
77091.9
75367.5
71566.5
66356.8
57535.9
42972
19985.5
2275.34
2304.52
20624.5
34625.4
47876.2
56752.4
59825.7
61248.5
77179.8
75459
71653.1
65157.5
56444.6
39697.5
17918.1
2327.6
2298.47
23509.9
40004.6
52474.2
57227.7
60118.6
61486.6
77300.5
75590.6
71875.6
65430
54918.6
39954.9
8579.11
2265.93
2316.39
26997.4
45885.7
52990.2
57616.8
60385.8
61694.3
77402
75718.3
72088.3
65745.7
54946.2
41894.8
6577.38
2245.07
7118.48
35285.5
46201.6
53255.6
57859.9
60556.5
61834.3
77454.2
75788.6
72215.4
65975.6
55217.9
42536.4
6754.94
2205.11
6617.53
35519.8
46426.5
53422
57987.7
60638.9
61900.4
80411.9
79267.2
76846.8
73010.3
65169.6
55728.5
30049.5
2331.17
40640.5
54929.9
58863.6
62827.2
65313.8
66764.9
67488.7
80291.4
79120.4
76624.5
72566.5
64418.4
54387.1
22380.2
2324.83
39365.9
54386.8
58332.9
62491.5
65071.2
66594.5
67344.6
80095.8
78885.5
76281.8
71876.8
65337.8
50622.8
20660.8
2359.73
19724.5
43022.2
58052.8
61972.9
64680
66308.9
67097
79858.3
78605.1
75861.1
71294.3
63455.3
48512.4
18666.5
2327.62
10060.1
40580.2
51237
61175.5
64056.6
65885.9
66752.2
79627.4
78336.2
75556
70567.1
62108.3
47718.6
22521.4
2703.84
7177
31629.5
46466.9
56118.5
63375.5
65389.3
66352
79420.3
78125.2
75028.6
69831.3
61521
47151
22124.7
2222.54
7261.64
26804.6
41707.4
54462.2
59669.8
64950.4
65971.1
79221.2
77883.6
74659.6
69319.3
61021.5
46645.5
25845.1
2284.17
2091.87
17697.6
37381.4
50638
58814.1
64544.7
65652.5
79082.1
77714.7
74441
69183.1
60338.6
45656.8
26387
2356.39
2300.25
6717.57
34411.4
48310.9
58388.1
64343.4
65493.8
79021.2
77648.5
74345.5
69012.8
59944.9
44226
16242.8
2306.45
2308.42
12654.7
35235.9
48439.7
58465.6
64388.4
65510.1
79047.2
77700.3
74378
68904.4
60134.4
44604
19757.8
2287.63
2305.53
21450.6
38499.1
50922.8
58977.8
64637.6
65688.1
79114.9
77762.6
74833.7
69355.2
60571.5
45751.9
21615.8
2291.85
6283.54
26885.9
41842.7
54795.6
62814.1
64938.5
65940.9
79240.5
77930.1
75058.8
70250.2
61495.8
46488.8
21092.2
2281.84
5282.01
32930.5
49304
60305.7
63375.7
65312
66229.3
79401.8
78142
75439.4
70850.6
64025.9
48215.5
17770.2
2373.59
17305.2
40099.7
56813.2
61036.3
63916.3
65655.8
66492.2
79537.7
78320.9
75741.3
71518
62809.1
53502.1
15439.8
2325.46
35892.8
52882.9
57040.4
61481.1
64255.8
65878
66673.8
79612
78425.3
75929.3
71926.4
63573.8
54262.8
21848.9
2325.21
37757
53755.2
57509.8
61777.6
64448.2
65996.6
66766.2
84553.3
84245.8
83684.8
83998.6
84597.2
91908.4
134201
130618
98218.8
80235.9
74661.8
73884.1
73489.2
73492.3
73585.3
84423.8
84074.9
83433.5
83446.4
83530.3
90998.4
133044
121006
96109.1
79409.3
74017
73508.2
73242.1
73321.7
73441.2
84209.3
83792.7
83028.9
82073.2
82432
76636.3
88631.5
82844
74098
69636.1
72929.1
72695.2
72809.5
73028.3
73191.8
83943.3
83442.8
82417.5
81079.2
76547.2
71440.4
62697.9
28067.4
47032.7
65577.8
67225.2
71677.9
72161.4
72609.2
72847.7
83682.4
83099.7
81946.7
78368.6
74640.9
65807.6
44340.6
4245.91
29084.5
53272
61857.7
67127.3
71459.3
72112.3
72454.9
83451.8
82842.4
80219.4
77382.6
71766.3
61962
41189.1
2265.14
19593.9
44690.9
56341.3
65533.5
67935.3
71668.1
72091.3
83235.6
82581.5
79712.1
76712.5
70070.7
59322.4
36301.6
2313.12
2215.9
31404.6
51603.9
61463.8
67097.4
71290.3
71777.6
83089.5
82409.3
79434.3
75577.8
69075
57373.6
34074.1
2458.79
2322.59
24959.2
48409.4
58898.6
66664.4
71077.7
71602.2
83022.7
82337.7
79326
75400.2
68689
56210.6
27888
2288.13
2165.8
26249.3
48481.2
58788.8
66624.7
71064.4
71580.8
83053.1
82391.7
79400.5
76281
69078.8
57062.7
30526.6
2380.73
2279.13
34547.7
51499.3
61223.2
66976.6
71246
71718.5
83132.7
82480.8
81158.5
76742.5
70592.8
59441.2
33744.1
2606.76
11447
43292.6
55481.7
65308.7
70702
71520.2
71929
83283
82712.8
81532.1
79891.8
73709.8
66947.1
42133.1
2322.55
24697.8
54321.4
64443.1
70525.9
71289.1
71896.9
72207.4
83474.4
82997
82109.9
80916
80735
71088.8
66342.7
65195.7
59890.3
64904.9
71441.8
71562.8
71905
72255.9
72479.2
83631.8
83226.5
82486
82457
81753
90387.2
134864
108292
91394.2
77757.6
72441.8
72374.9
72305.7
72492.5
72667.7
83718.4
83359.6
82715.5
82958.4
82798
91122.9
133774
118429
95243.9
78948.8
73142.6
72769.1
72530.5
72624.8
72767.1
89398.4
89871.4
90838.6
93938.5
99976.9
105019
131464
137712
112326
96672.3
88573.3
84176.2
81527.5
80353.1
79882.3
89292.1
89725.9
90676.4
93706.8
99490.5
105471
133704
143184
113990
96489.6
88233.9
83928
81339.1
80213.5
79762.8
89105
89444.2
90382
92406.6
97844.6
102199
123969
151543
118145
95928.7
86927.2
83114.7
80971.6
79956
79551.4
88858.6
89105.3
89741.1
91370.4
92190.8
100394
123683
162302
118966
93664.1
84492.1
82033.1
80401.1
79594.3
79257.6
88613
88761.6
89150.1
88186.4
89832.9
92460.1
105294
183831
109302
86914.2
80967.1
79275.5
79763.7
79167.3
78921.4
88407.6
88440.1
87016
87091.6
86246.1
86275.5
91449.6
130133
83593.2
79996.2
77122.8
78110.3
77345.5
78741.6
78610.6
88210
88189.5
86595.6
86376.8
83739
82293.4
77043.8
53212.1
30702.3
70614.5
73748.9
75343.6
76734.2
78415.6
78342.9
88077.5
88039.6
86333
84749.4
82795.2
80004
68254
16975.6
2261.41
58925.1
70496.9
73156.1
76279.5
78219
78175.3
88006.3
87963.3
86228.3
84600.7
82563.6
79800.9
68668.3
2243.91
2396.96
55871.9
69471.7
72720.8
76128.9
78154.7
78113.4
88019.2
88008.6
86285.7
86008.4
82979.1
81379.5
76077.2
19117.9
34352.3
65807.2
71521.9
74421.3
76311.5
78254.9
78183.6
88072.2
88165.7
88423.1
86611.9
85203
84366
87710.4
125030
82716.8
76177.5
74815.8
77227.1
78905.6
78501.3
78328.1
88207.1
88390.9
88895
90277.7
89702.6
95621.7
107180
173290
107656
86483.2
81608
80794.6
79452.6
78814.1
78553.1
88383.8
88670.5
89503.3
91407.1
96551.7
99954.2
124470
156110
118582
93831.4
85483.2
81978.2
80018.7
79125
78781.6
88518.6
88915
89763.8
93015.2
98497.3
104764
137567
145632
115007
95657.5
86808.8
82872.3
80375.4
79341.2
78942.8
88585
89023.2
89898.9
93177.5
98755.9
104103
132627
140069
113629
95722.6
87240.7
83162.5
80556.1
79450.3
79023.8
93626.4
94378.5
95692.4
97937.1
103318
102660
105862
109087
103226
99498.5
94677.4
90582.1
87722.4
86194.2
85465.9
93590.4
94338.1
95716.1
98283.7
103695
103976
108443
113412
105556
100188
95035.8
90660.5
87684.1
86132.3
85399.8
93514.4
94203.5
95773
98331.9
103128
106047
111917
122195
109890
101749
94747.4
90474.7
87568.4
85992.3
85277.7
93382.1
94042.9
95517.4
98442.6
100657
108002
118972
133228
118536
103204
94889.1
90195.8
87325.1
85781.6
85094.8
93223.8
93824.3
95244.4
96102.4
100365
106943
121453
141989
125968
105933
94770.4
89229.3
87006.1
85496.1
84863.8
93066.3
93512.9
93619.1
95539.9
98160.2
105027
122549
163952
126025
107682
94706
88972.4
85833.5
85119.1
84621.9
92921.1
93321.1
93403.5
95174.7
96813.4
104121
121868
172948
93269.7
111968
94679.9
88086.2
85498.7
84864.3
84414.2
92813.5
93192.4
93233.6
93905.6
96401.8
103724
123219
196825
162287
109768
93493
87174.7
85101.4
84680.3
84264.2
92729.7
93104.3
93129.7
93761.6
96241.9
103732
124737
201977
148852
105197
91988.3
86606.2
84873.1
84575.9
84167.3
92701.9
93105.4
93102.5
94738.6
96249.6
103636
122491
170776
135956
103177
91459.3
86710.7
84858
84587.3
84162.9
92719.7
93271.6
94557.3
95029.4
97300.1
103838
121248
155105
128199
103029
91832.4
87539.9
86049.1
84789.4
84241
92778.5
93391.7
94769.2
97596.2
99365.9
107219
120067
143385
123332
102865
93018.1
88990.4
86368.6
84984.7
84372
92848.5
93507.1
94997.5
97581.3
102215
106103
114109
126062
110834
101278
93563.6
89451.2
86639.4
85164.1
84501.6
92873.5
93619.7
94870.6
97760.7
103117
102985
108524
115035
106373
99538.6
94028.6
89789.5
86760.5
85280
84584.5
92868.4
93620.8
94793.4
97343.4
102513
101520
105639
111052
104193
98715.6
93765.7
89745.5
86792.7
85316.7
84617.2
96594.5
97185.9
98244
98862.7
102041
101528
101107
103161
99870.3
99047.9
96247.4
93751.9
91753.3
90496
89821.3
96640.7
97269.3
98379.2
99432.5
102796
102552
102846
104834
101621
100013
96966.2
94057.2
91863.7
90528
89822.9
96718.3
97348.2
98691.7
100349
103523
105127
108223
112268
107351
102281
97717.7
94476.6
92031.2
90552.5
89821.9
96771.8
97473
98926.2