/*--------------------------------*- C++ -*----------------------------------*\
| =========                 |                                                 |
| \\      /  F ield         | OpenFOAM: The Open Source CFD Toolbox           |
|  \\    /   O peration     | Version:  v2012                                 |
|   \\  /    A nd           | Website:  www.openfoam.com                      |
|    \\/     M anipulation  |                                                 |
\*---------------------------------------------------------------------------*/
FoamFile
{
    version     2.0;
    format      ascii;
    class       volScalarField;
    location    "0.03";
    object      p_rgh;
}
// * * * * * * * * * * * * * * * * * * * * * * * * * * * * * * * * * * * * * //

dimensions      [1 -1 -2 0 0 0 0];


internalField   nonuniform List<scalar> 
449343
(
107320
107450
107666
107868
107951
107676
106865
105444
103468
101151
98786.1
96649.2
94932
93743.8
93138.9
107328
107459
107676
107879
107964
107690
106882
105464
103492
101179
98815.3
96677.9
94958.8
93768.8
93162.8
107343
107475
107694
107901
107990
107718
106914
105502
103538
101231
98871.6
96733.2
95010.4
93816.5
93208.3
107364
107498
107721
107932
108024
107755
106958
105553
103600
101303
98950.1
96810.5
95082
93882.5
93271
107388
107525
107752
107969
108063
107800
107009
105614
103674
101389
99043.6
96902.2
95166.4
93959.5
93343.9
107413
107552
107784
108007
108104
107846
107063
105680
103753
101480
99140.9
96997
95253
94038.2
93418.1
107435
107576
107812
108040
108140
107889
107114
105740
103824
101563
99225.2
97080.7
95329.3
94107.8
93483.9
107451
107594
107833
108065
108168
107923
107152
105783
103874
101620
99284.5
97138.3
95383.1
94158.2
93532.5
107461
107604
107844
108078
108183
107942
107177
105812
103903
101644
99307.8
97161.7
95407.7
94183.8
93558.6
107464
107606
107845
108079
108186
107946
107180
105813
103899
101633
99295.4
97149.6
95401.5
94182.6
93559.9
107460
107602
107838
108071
108177
107937
107169
105796
103873
101598
99256.2
97113.4
95373.4
94162
93543.5
107454
107594
107827
108056
108162
107921
107150
105769
103836
101552
99204.5
97064.9
95333.1
94129.6
93515.6
107446
107584
107815
108041
108144
107903
107126
105739
103797
101505
99152.9
97016.4
95291.8
94095.1
93484.9
107440
107577
107805
108029
108130
107886
107105
105714
103764
101466
99112.3
96978.3
95258.9
94067
93459.6
107436
107573
107800
108022
108122
107876
107093
105699
103746
101445
99090.1
96957.5
95240.8
94051.4
93445.4
107169
107346
107661
108017
108272
108218
107538
106048
103813
101154
98489.9
96156.2
94331.6
93092.1
92467.5
107176
107355
107672
108029
108287
108235
107556
106070
103841
101186
98523.5
96188
94360.4
93118.4
92492.5
107191
107371
107692
108054
108315
108265
107589
106111
103892
101248
98590
96250.7
94416.4
93169.1
92540.3
107212
107395
107720
108088
108354
108303
107632
106160
103959
101334
98685.2
96340.2
94495.5
93239.7
92606.5
107236
107423
107754
108130
108401
108346
107687
106229
104035
101439
98802.9
96449.3
94590
93323
92684.1
107261
107451
107790
108174
108451
108400
107746
106305
104134
101554
98928.1
96565.2
94689
93409
92763.8
107284
107477
107821
108212
108491
108454
107807
106377
104224
101661
99048.4
96670.5
94776.7
93485.8
92834.9
107300
107495
107843
108239
108522
108492
107848
106380
104278
101727
99120.8
96738.3
94836.8
93541
92887
107310
107505
107853
108250
108537
108513
107878
106461
104317
101756
99143.4
96761.7
94862.6
93567.5
92914.1
107312
107506
107851
108247
108540
108509
107877
106457
104304
101729
99103.4
96735.3
94850.9
93563.9
92914.6
107308
107499
107841
108232
108522
108494
107863
106432
104259
101674
99039.8
96680.8
94812.8
93538
92894.6
107301
107489
107826
108212
108499
108478
107838
106396
104218
101606
98961.9
96613.7
94762
93499.4
92862.1
107293
107479
107812
108193
108476
108457
107812
106363
104169
101541
98890.1
96550.4
94711.7
93459.2
92827.2
107286
107471
107800
108177
108457
108436
107787
106331
104127
101489
98835.8
96502.3
94672.5
93427
92798.7
107282
107466
107794
108168
108446
108424
107773
106312
104103
101461
98807.3
96476.9
94651.3
93409.2
92782.8
106781
107065
107607
108322
109040
109546
109256
107589
104664
101106
97709.7
94931.2
92875.1
91527.9
90863.1
106788
107074
107618
108337
109058
109566
109277
107615
104699
101149
97753.3
94970
92908.4
91557.3
90890.6
106802
107091
107641
108368
109096
109604
109313
107668
104764
101238
97845.1
95048.9
92974.1
91614.5
90943.6
106822
107116
107674
108411
109148
109647
109343
107729
104830
101360
97985.6
95167.5
93069.5
91695.6
91018
106846
107146
107716
108467
109213
109687
109365
107762
104901
101536
98164.5
95316.7
93187.4
91793.2
91106.4
106872
107178
107761
108526
109290
109746
109424
107865
105050
101723
98376.1
95483.2
93313.7
91896.1
91198.4
106895
107206
107797
108580
109335
109822
109505
107971
105189
101876
98631.3
95641.2
93431.6
91989.6
91281.2
106911
107225
107822
108613
109379
109885
109595
107998
105277
101968
98726.6
95731.1
93507.9
92056.3
91342.2
106920
107233
107830
108622
109387
109894
109598
108087
105323
102004
98759.2
95759
93536.9
92085.5
91372.2
106921
107232
107824
108605
109391
109876
109593
108072
105288
101955
98611.6
95699.7
93509.3
92076.1
91370
106916
107221
107803
108574
109346
109859
109580
108018
105196
101838
98464.6
95599.7
93449.4
92038.2
91342.2
106908
107208
107780
108539
109304
109843
109582
108012
105148
101693
98319
95488.6
93373.6
91985.2
91299.6
106899
107195
107759
108507
109263
109811
109561
107956
105085
101578
98190.7
95388.4
93302.3
91932
91254.8
106892
107186
107744
108484
109232
109777
109527
107903
105019
101489
98102.1
95317.2
93248.7
91890.1
91218.8
106889
107181
107736
108472
109217
109759
109507
107876
104982
101445
98058.8
95281.1
93220.4
91867.4
91199
106029
106470
107351
108645
110217
111788
112630
110618
106178
100735
96102.7
92715.7
90393.6
88944
88249.9
106034
106478
107363
108662
110241
111814
112647
110651
106221
100793
96159.2
92762
90431.6
88976.9
88280.5
106046
106493
107388
108702
110295
111871
112695
110733
106330
100940
96288.6
92859.7
90508.1
89041.9
88339.9
106063
106516
107426
108764
110371
111952
112589
110838
106361
101190
96513.3
93014.1
90622.2
89135.5
88424.3
106084
106547
107476
108839
110480
111981
111940
110689
107308
101571
96819.1
93228.1
90768.9
89250.8
88526.3
106107
106581
107541
108960
110639
111271
111919
110797
107556
103002
97213.2
93477.2
90934.8
89374
88634
106128
106612
107590
109032
110017
111380
112002
110922
107733
103250
98657.3
93702.1
91090.1
89489.9
88732.8
106144
106634
107622
109073
110060
111468
112123
110957
107887
103429
98801.1
93826.2
91200
89576.4
88805.5
106152
106639
107624
109077
110079
111487
112145
111099
107967
103502
98886.1
93872.3
91230.1
89610
88842.5
106155
106634
107606
109047
110755
111444
112140
111104
107934
103455
97587.2
93783.9
91190.8
89595.3
88838.2
106149
106619
107564
108952
110631
112185
112218
111054
107816
102003
97243.3
93604
91096.8
89543.2
88800.7
106142
106604
107530
108895
110541
112176
112879
111201
106792
101636
96947.8
93415.2
90986.3
89470.8
88744.3
106135
106591
107502
108842
110471
112090
112980
111076
106719
101358
96708.2
93261.5
90886
89399.3
88685.9
106129
106581
107482
108807
110418
112031
112921
110978
106590
101190
96563.4
93158.1
90812.9
89344.2
88639.5
106127
106576
107473
108791
110395
112003
112899
110937
106537
101121
96498.5
93107.6
90775.1
89314.7
88614.2
104715
105327
106601
108628
111470
115039
118783
115990
108460
99253.3
92950.8
89100.6
86689.3
85273.3
84624.5
104717
105331
106609
108645
111496
115073
118798
116019
108519
99332.7
93017.2
89149.2
86728.9
85308.2
84657
104721
105340
106629
108687
111575
115168
118868
116104
108704
99532.6
93174.7
89253.2
86809.8
85377.9
84720.8
104728
105355
106665
108783
111778
115389
116630
116310
110468
100185
93537.9
89439.9
86933.3
85479.7
84812.6
104738
105374
106717
108886
111925
113957
116723
116416
110808
102765
94000.4
89691.6
87101
85607
84925.3
104752
105408
106806
109140
111125
114236
116890
116512
111059
103374
96522.9
90065.5
87284.8
85751.7
85046.8
104763
105423
106838
108581
111246
114435
116097
116057
111693
104704
97074.4
92150.9
87439.1
85872.8
85157.8
104778
105448
106925
108619
111342
114559
116254
116256
112027
105080
97456.2
92417
87686.4
85974.2
85249.5
104784
105448
106868
108623
111357
114594
116309
116392
112170
105248
97568.8
92507.8
87630.6
86026.3
85291.9
104795
105458
106872
109233
111258
114481
116349
116375
112099
104203
97269.6
90517.8
87631.9
86028.8
85292.1
104796
105440
106802
109003
112094
114267
117101
116889
111487
103753
94648.4
90219.6
87523.1
85960.8
85246.7
104797
105433
106763
108914
111959
115645
116987
116817
111232
100827
94130.4
89956.2
87376.2
85870.4
85177
104797
105425
106733
108820
111750
115395
119186
116574
109176
100058
93693.3
89734.3
87247.5
85780.5
85104.7
104797
105419
106715
108779
111667
115287
119092
116405
108943
99800.8
93488.6
89602.2
87155.7
85711.8
85047.5
104797
105417
106708
108762
111638
115247
119064
116334
108863
99695.7
93400
89538.6
87109
85675.5
85016.6
102595
103328
104915
107642
111992
118853
124381
129566
115599
94274.8
87038.4
83535.7
81514.2
80452.9
80005.1
102589
103324
104915
107651
112018
118886
124398
129587
115633
94343
87094.7
83574.3
81549.8
80486.8
80037.5
102579
103317
104915
107662
112067
118981
124436
129641
115708
94453.1
87181.4
83636.2
81620.7
80554.6
80101.7
102566
103312
104931
107746
112488
116863
124602
129842
115924
99273.8
87525.6
83723.3
81727.3
80656.2
80195.3
102549
103295
104927
107846
111315
117207
125017
127636
117623
100377
91163.7
83918.2
81836
80773.2
80311
102541
103285
105006
107469
111483
116366
123390
126834
118110
103256
91855.7
86690.3
82006.9
80902.5
80438.1
102530
103265
105018
107544
111687
116492
122642
127166
119211
104920
94108.5
87151.5
82159.2
81017.1
80554.7
102529
103254
105043
107641
111085
116074
122846
127551
119909
105710
94667.3
87536.1
84337.5
81100.2
80652.7
102546
103287
105053
107631
111110
116619
122968
127828
120395
106195
94981.5
87665.9
82455.4
81215.1
80717.1
102576
103327
105064
107544
111746
116655
122920
127784
120244
106063
94896.1
87599.9
82482.9
81246
80727.7
102593
103348
105000
107957
111492
117565
123640
128419
119052
104204
92553.6
84679.6
82379.6
81195.8
80680.3
102617
103373
105013
107863
112662
117175
125070
130478
116845
100514
88330.1
84383.3
82258.1
81102.8
80601
102633
103380
104998
107776
112227
119207
124808
130124
116400
95108.4
87808.6
84201.7
82116.7
80997.3
80516.8
102645
103388
104997
107762
112170
119094
124681
129967
116146
94887.6
87631.9
84080
82015.4
80918.5
80450.6
102651
103392
104997
107751
112138
119052
124651
129906
116051
94778.4
87535.6
84012.5
81963.2
80876.9
80414.9
99451.4
100157
101739
104632
109590
116437
132932
162686
119010
86173.6
76378
75298.1
74715.4
74570.7
74550.3
99436.6
100141
101720
104613
109578
116431
132912
162675
118998
86182.5
76391.2
75311.1
74743.1
74601.4
74581
99401.6
100102
101674
104540
109471
116403
132827
162634
118977
86243.9
76348.8
75321.6
74795.6
74660.3
74642
99358.4
100051
101612
104335
108872
116775
132856
162535
118949
86579.7
79981.5
75176.8
74866
74747.8
74732.5
99289.4
99961.5
101433
104423
108912
115923
129928
162458
120376
91074.8
80157.5
77741.4
74870.6
74850.1
74845.4
99226.4
99821.5
101910
104491
108687
115936
128587
157630
126077
94050.8
83146.8
78087.7
76922.2
74956.3
74975.8
99193.9
99784.9
101915
104505
108744
115567
128594
157852
127568
95600.2
85375.1
80244
77170
75130.7
75114.4
99167
99760.4
101982
104549
108778
115608
128711
158352
129964
97679
86497.3
80851.4
77516.4
75283.7
75203.3
99203.5
99798.3
101950
104586
108831
115672
128854
158884
132330
99295
87252.4
81219.8
77636.6
75357.3
75299.9
99245.4
99848.3
101964
104537
108845
115724
128935
158870
131214
98698.2
87045
81135.2
77645.7
75349.1
75298.9
99313.3
99992.2
101483
104508
109056
116177
128975
158455
128093
96395.8
84819.4
78977.2
75521.9
75327
75249
99381.2
100084
101666
104421
108907
116924
130258
163034
120539
92565.9
81246.8
75967.6
75466.9
75232
75162.3
99425.1
100133
101723
104619
109588
116585
133084
162965
119766
87244.3
77044.5
75948.4
75328.1
75122.5
75068.6
99456.6
100170
101766
104685
109683
116587
133096
162956
119518
86833.4
76964.1
75844.2
75223.9
75039.3
74995.7
99471.2
100185
101782
104700
109687
116569
133112
162949
119466
86707.9
76894.8
75788.2
75169.8
74994.2
74956.5
95231.2
95651
96591.2
98335.9
101235
107959
115450
113317
24990.8
55402.4
61232.4
64631.7
66769.9
68109.5
68722.2
95205.1
95621.6
96556.3
98288.2
101194
107912
115411
113211
24872.8
55317.2
61185.8
64637.7
66800.2
68139.6
68751.8
95149.4
95553
96475.7
98212.5
101070
107789
115289
113075
24706.8
55326.6
61203.9
64727.8
66875.1
68203.1
68813.8
95068.4
95442.1
96335.8
97896.2
102335
107341
114993
112855
24866.5
55745.6
62818.8
64979.2
67021.2
68309
68913.9
94958.1
95295.5
96098.6
99022.3
102061
107722
115701
112510
26455.7
59777.5
64873.4
66679.9
67317.3
68491.3
69051.9
94834.9
95153.6
97216.2
98895
102528
107941
115438
111991
30809.9
61749.1
66811.3
67312.9
68831.1
68761.8
69217.5
94787.9
95098.1
97185.5
98813.1
102781
107872
115298
111657
39064.3
64620.7
68416.1
69074.6
69161.6
69010.2
69394.6
94764.2
95063.2
97155.6
99468.6
102788
107867
115273
111422
52761.9
68909.4
70299.1
70520.4
69551.8
69196.8
69509
94787.4
95099.9
97164.4
99474.7
102816
107916
115350
111467
72877.7
72980.8
71666.5
71083.1
69694.5
69239.8
69587.1
94832.5
95157
97224.6
98871.2
102849
108001
115505
111858
69431.2
72151.3
71336.8
70232.1
69657
69158.3
69544.3
94951.6
95297.5
96117.5
99006.1
102648
108108
115703
112358
34841
66529.4
69481.6
68255.6
67980.2
68972.2
69455.5
95055.9
95437.8
96349.4
97938.8
102322
107166
114871
112878
26838.9
59954.6
64326.1
65836.2
67641.2
68789.9
69333.2
95129.6
95540.7
96478.8
98239.5
101127
107675
115265
113084
25716.5
56382.4
61939.5
65363.9
67397.1
68646.2
69217.8
95179.4
95603
96551.8
98304.2
101235
107955
115460
113242
25205.1
55915.6
61741.6
65148.8
67253.8
68547.1
69134.7
95202.5
95628.8
96582
98345.6
101267
108018
115532
113330
25114.2
55844.3
61712.8
65087.5
67189.4
68497.2
69092.1
90213.4
90103
89857.6
89484.5
89384.2
93369.5
97128.9
110414
9308.41
34126.8
47407.2
54627.1
59358.8
62127.7
63372.7
90181.6
90067.3
89817.8
89438.7
89352.3
93317.2
97079.8
110216
4013.41
33949.3
47347.4
54654.2
59394.2
62156.6
63399.4
90118.6
89994.6
89736.3
89388.2
89279.4
93187.1
96948.8
110085
2766.92
34000.4
47478.5
54800.8
59492.5
62231.4
63462
90031.3
89877.2
89610.9
89398.3
92026.2
93096
96682.3
109895
5393.51
34459.1
47843.7
55244
59706.4
62374.7
63574.2
89925.7
89750.7
89539
91370.6
91999.8
94881.9
97679.6
109766
4596.79
34783.8
48912
56298.9
60086.8
62627.5
63746.4
89816.1
89712
91067.8
91255.4
93187.4
95619.5
97481.4
109231
3101.13
36224.4
50175.1
56902.3
61100.4
62930.6
63953.9
89774.8
89681.3
90950.9
91206.8
93801.6
95510.6
97356.9
108993
1881.74
38709.9
51720.5
58084.4
61524.7
63187.5
64138.8
89749.6
89650.4
90898.7
92175.3
93767.7
95486.9
97334.9
108836
12903
42721.1
53728.6
59196.9
61922.8
63384.9
64260
89760.7
89670.3
90903.1
92181.3
93793.2
95531.1
97402.8
109036
70207.2
49163
55338.4
59754.4
62097.9
63427.6
64318.6
89786.3
89687.4
90959.9
91269
93858.5
95625.7
97527.2
109279
21535.8
47687.1
54981.4
59333
62008
63332.5
64259.5
89880.4
89711.6
89515.9
91281.3
93307.1
95775.8
97685.8
109505
41152.3
42466.8
52985.2
57888.5
60762
63076.7
64112.8
89970.7
89823.1
89573
89391
92088.2
93291.6
96940.3
110001
3718.2
36821
49624.8
56029.4
60274.4
62800.3
63939.8
90043.8
89925.3
89679.1
89349.7
89267.8
93183.8
96888.6
110031
3335.52
34921.1
48119.1
55347
59938
62604.4
63799.6
90096.6
89987.5
89749
89387.9
89319.3
93276.5
97047.5
110179
3771.75
34406
47782.2
55068.8
59763.8
62486.9
63708.9
90123.2
90017.5
89781.8
89424.2
89339.1
93352.8
97130.3
110272
2503.78
34238.5
47748.7
54979.4
59690.5
62435.2
63665.9
85111
84410.2
82948.7
80597.6
80149.8
78785.9
81185.4
2165.26
25967.2
40192
48621.6
54451.8
57940.7
59563
85077.2
84372.6
82907.4
80554.3
80101.3
78727.2
81125.5
2194.04
25892.3
40152.6
48648.2
54468.3
57954
59574.7
85016.6
84309.7
82829.4
80473.5
80059.7
78654.9
80996.3
2212.31
25730.2
40287.5
48729.3
54522.4
58000.2
59608.2
84945.4
84229.6
82725.7
80550.1
80269.7
78526.7
80776.1
2230.4
25978.1
39254
49062
54661.9
58102.5
59678.3
84878.7
84158.4
82782.4
82620
80741.2
80569.6
81402.9
2250.65
24010
39059.7
48862.7
54920.3
58289.1
59801.4
84816.3
84220.8
84205.1
82798.7
82020.1
81481.5
81277
2796.4
24576.3
39420.9
49246.8
55013.1
58433.5
59957.7
84783.2
84195.8
84141.9
82849.8
82778.8
81477.8
81235.2
2306.04
25670.9
40702.7
49707.5
55364.6
58574.4
60078.3
84751.1
84170.8
84106.4
83690
82873
81508
81298.1
2404.86
29169.5
42541.7
50432.7
55616.4
58713.4
60167.6
84751.4
84169.6
84098.8
83709.5
82898.2
81568.4
81421.1
2208.18
30058.1
43268.9
50795.1
55758.7
58761.7
60227.9
84753.2
84166.6
84127.6
82864.1
82839.6
81615
81487.7
2182.68
29756.3
42649.6
50547.3
55750.3
58742.5
60205.4
84784.5
84068.7
82711.4
82564.9
82046
81620.7
81519.6
3526.54
27673.4
41379.6
49974.4
55411.1
58634.3
60084
84824.2
84112.7
82621
80478.6
80290.9
78688
80611.7
2342.61
25949.7
40460.6
49591.3
55062.8
58406.7
59941.7
84873.4
84169.6
82698.4
80362.2
79980.4
78578.2
80903.8
2375.04
26251.3
40678.3
49084
54819.7
58249.2
59833.9
84919.3
84217.4
82759.5
80425.7
80014.7
78635.7
81022.8
2383.36
26159.8
40407.6
48902.7
54698
58160.1
59768.7
84945.6
84246.8
82790.6
80453.2
80006.7
78672.2
81089.4
2403.31
26159.4
40372.9
48820.3
54645.8
58124
59739.6
80855.6
79614.3
77002
72412.3
69852.5
61747.7
57053.4
2908.12
2172.82
25294.3
38394.2
46951.6
52836.1
56377.3
58071.2
80814.1
79566.3
76940.7
72330.1
69773.6
61634
56895.2
2304.38
2196.74
25161.9
38289.8
46929
52801.6
56354
58049.7
80741.2
79488.3
76828.2
72154.7
69645.5
61444.7
56717
2433.6
2211.25
21496.3
38322.3
46874.8
52751
56320.2
58013.6
80658.3
79404.3
76655.4
71996.1
69473.5
61201.9
56614.2
2288.07
2231.72
21935.8
35567.5
46871.6
52692.2
56291.5
57972.3
80591.1
79313.8
76506.7
74885
69068.9
64064.6
58451
2329.58
2264.84
19667
34244.9
45096.5
52652.7
56298.7
57955.3
80532
79248
78387.8
74660.8
70997.5
65329.1
58376.2
2903.53
2263.76
19428.2
33712.5
45051.9
51600.4
56236.5
57960.4
80475.1
79180.1
78309.1
74471.3
71803.7
65281.1
58405
2967.29
2259.36
20409.1
34605
44540.7
51681.1
56217.2
57958.8
80426.6
79139.8
78246.1
75853.8
71758.9
65338.5
58651.4
2208.66
2230.72
40824.5
36748.5
44723.3
51779.3
56262.1
57988.5
80419.8
79126.6
78236.1
75862.9
71777.5
65443.9
59140
10977.1
4189.69
23756.6
36071.1
44846.9
51887
56326.6
58050.3
80424
79143.2
78290.6
74494.8
71859.2
65496.1
59025.9
3180.81
2184.1
21945.3
35181.6
45046.9
51987.9
56412.9
58106
80434.8
79156.5
76353.9
74763.4
71044
65519.2
58879.4
3610.1
2357.05
21310.5
34875.5
45648.9
52909.9
56482.2
58107.2
80462.2
79206.7
76458.7
71816.5
69230.3
61150.3
56744.4
2494.83
2320.68
21225.9
36143.7
47108.8
52879.6
56424.3
58092.7
80515.5
79260.3
76599.9
71930.9
69369.3
61246.1
56619.6
3234.14
2373.72
21853.2
38426.2
46995.5
52852.2
56403.5
58090.1
80569.6
79319.2
76690
72080.2
69534.2
61402.7
56684.8
2279.25
2388.05
25177.7
38293.2
46977.7
52846.6
56399.1
58094.6
80601.6
79357
76739.1
72144
69603
61510.1
56769.2
3505.93
2407.39
25321.9
38347.8
46954.9
52851.4
56401.4
58099
78288.6
76653.4
73165.1
66966.2
56178.9
45581.3
19481.9
2320.66
2177
28301
40829.7
48873.4
54302.4
57543.2
59090.9
78229.4
76583
73062.4
66823
55959.7
45327.2
19538.6
2292.2
2197.85
27952.5
40601.4
48750.6
54199.9
57469.7
59027.6
78123.9
76464.2
72893.8
66601.4
55586
44793.7
19270.2
2282.57
2215.1
22571.7
40283.2
48540.9
54017.1
57332.2
58908.8
77994
76335.7
72664.2
66339.7
59838.6
44317.6
19321.7
2283.7
2232.31
22571.3
35952.8
48169.8
53732.3
57130.5
58741.7
77875.9
76207.2
72504.9
68719.7
59629.3
48073.3
25906.5
2290.74
2259.94
18959.4
33550.3
44950.8
53363.4
56913.1
58550.5
77776.4
76076.5
73999.6
68545.8
61712.5
49835.4
26355.1
2252.53
2278.44
17676.8
31713.8
44256
51147.9
56652.2
58375.3
77677.1
75953.8
73936.6
68356.7
62577.2
49801.7
26449.8
2265.58
2306.33
14634.9
30634.3
42451.5
50856.5
56465.7
58239.8
77604.5
75879.5
73854.8
69661.8
62425.5
49786.2
26738
2295.72
2248.59
9020.07
30110.4
41714.2
50741.8
56416.2
58202.7
77589
75856.3
73824.4
69631.4
62385
49775.4
27651.5
3995.87
2300
2300.58
30008.6
41839
50872.3
56504.8
58266
77608.6
75896.3
73861
68273.8
62504.1
49928.5
27676.3
2313.54
3386.71
16351.9
31360.1
42957.3
51177.8
56697.7
58403.2
77641.6
75957.8
72223
68507.5
61613.7
49983.9
27224.4
2208.7
2336.65
19268.5
32640
44887.7
53413.4
56929.9
58549.1
77708.6
76035.6
72336.8
65983.1
59517.8
44186.9
21094.6
2306.16
2317.11
20505.4
35956.5
48134.8
53691.6
57082.5
58692.2
77803.7
76130.3
72538.6
66219.5
55219.5
44380.7
19128.4
2261.8
2381.42
22466.6
40082.9
48396.1
53899.3
57232.7
58817.9
77887.8
76228.6
72685
66410.6
55550.5
44830.6
19220.2
2255.57
2396.89
27547.7
40308.6
48539
54031
57333.7
58905.9
77936.5
76288.7
72777.2
66539.4
55741.1
45161.2
19414.1
2256.6
2415.49
27810.6
40450.1
48617.1
54106.4
57387.3
58952.5
78039.7
76400.2
72873.4
66731.1
56082.5
43235.6
7884.57
2272.41
10659.4
36883
47389.3
54115.8
58541.3
61114.6
62342.7
77958.5
76302.6
72722.6
66483.5
55802
42406.7
7238.46
2234.35
8692.15
36333.5
46955.6
53876.1
58367.6
60994.2
62241.5
77815.7
76136.5
72478.3
66124.3
55672.8
41110.1
8332.1
2270.38
2220.46
27965.7
46599
53529.6
58061.9
60770.5
62051.3
77638.7
75952.7
72219
65835.7
57330.6
40104.7
9514.64
2286.19
2229.03
27539.1
40905.6
52909.6
57585.7
60433.5
61779.5
77471.6
75784.4
72073
66935.5
56826.7
42297.3
18830.4
2297.37
2244.52
21999
37245.9
48568.6
56992.9
60042.1
61458.7
77327.8
75633.5
72663.1
66627.9
58013.4
43330.6
19145.6
2263.28
3493.04
19160.2
33840.2
47267
53880.1
59652.7
61151.7
77186.1
75460.6
72517.4
66363.8
58440.8
43311.7
19792.3
2258.47
2219.74
11495.2
30617.3
44230.7
53227.9
59327.1
60910.3
77088.7
75346.2
72389.7
67106.2
58101.5
42982.2
21189.3
2271.59
2312.5
2399.3
28296
42531
52922.5
59197.4
60814.1
77059.1
75311.3
72336.7
67014.2
57897.2
42294.5
16111.3
2325
2312.63
4300.11
29205.4
42751.2
53067.1
59293
60871.8
77091.6
75365.2
72354.5
66126.8
58027.6
42625.5
19666.8
2297.37
2308.94
16347.9
32144.6
44797.7
53552.5
59561.9
61062
77150.8
75426.3
71625.3
66410.8
57587.4
43022.2
20035.8
2276.23
2350.22
20674.8
34675.7
47930.1
56811.2
59884.6
61307.4
77258.3
75537.4
71731.5
65236
56518.2
39771.1
17989.2
2331.81
2350.38
23581
40078.2
52552.7
57306.1
60197
61565.1
77398.6
75688.7
71973.7
65528.1
55016.7
40048.1
8672.3
2266.17
2403.29
27090.6
45983.8
53088.3
57714.9
60483.9
61792.4
77519.8
75836
72206
65863.4
55063.9
42012.5
6690.2
2245.22
7236.18
35403.2
46319.4
53373.3
57977.6
60674.2
61952
77591.6
75925.9
72352.7
66112.9
55355.2
42673.8
6887.37
2205.34
6754.84
35657.2
46563.9
53559.3
58125.1
60776.2
62037.7
80274.5
79129.9
76709.5
72873
65032.2
55591.1
29912.2
2251.02
40503.2
54792.6
58726.3
62689.9
65176.5
66627.6
67351.4
80173.6
79002.7
76506.8
72448.8
64300.6
54269.3
22262.6
2270.48
39248.1
54269.1
58215.2
62373.8
64953.5
66476.8
67226.8
79997.7
78787.4
76183.7
71778.7
65239.7
50519.8
20557.8
2300.47
19621.5
42919.2
57954.7
61874.8
64581.9
66210.8
66998.9
79779.9
78526.6
75782.6
71215.9
63371.9
48429
18583.1
2326.02
9974.31
40496.9
51153.6
61097
63978.1
65807.5
66673.7
79568.5
78277.3
75497.2
70503.3
62044.5
47652.4
22453.9
2686.58
7109.56
31562.1
46400.7
56054.7
63316.7
65330.4
66293.2
79381
78086
74984.5
69787.1
61474.4
47103.2
22076.9
2222.31
7213.81
26756.7
41659.6
54418
59625.7
64911.1
65931.9
79201.6
77864
74635.1
69294.8
60993.3
46617.3
25816.9
2283.4
2090.75
17669.4
37353.2
50611
58789.6
64525.1
65632.9
79082.1
77714.7
74436
69175.8
60330.1
45648.2
26378.4
2351.84
2295.98
6708.98
34402.9
48302.4
58383.2
64343.4
65493.8
79040.8
77668.1
74360.2
69025
59956
44237
16253.8
2307.75
2310.66
12665.7
35247
48450.7
58480.3
64408.1
65529.8
79086.4
77739.5
74412.4
68938.8
60165.1
44634.6
19788.4
2288.14
2314.73
21481.3
38529.8
50954.7
59012.1
64676.9
65727.3
79173.8
77821.5
74892.6
69409.2
60623
45802.2
21666.1
2315.16
6333.82
26936.2
41893
54849.5
62873
64997.4
65999.7
79319
78008.5
75137.3
70328.7
61569.4
46562.4
21163.4
2335.21
5351.91
33001.6
49377.6
60384.1
63454.2
65390.4
66307.7
79499.9
78240.1
75537.5
70948.7
64124
48308.7
17863.4
2374.58
17398.4
40192.9
56911.3
61134.4
64014.4
65753.9
66590.3
79655.4
78438.6
75859
71635.7
62926.9
53619.8
15557.4
2368.73
36010.5
53000.6
57158.1
61598.8
64373.5
65995.8
66791.5
79749.3
78562.7
76066.6
72063.8
63711.1
54400.2
21986.1
2389.23
37894.3
53892.5
57647.2
61915
64585.6
66134
66903.6
84416
84108.4
83547.5
83861.3
84459.8
91771
134064
130481
98081.5
80098.5
74524.5
73746.7
73351.9
73355
73448
84306.1
83957.2
83315.7
83328.7
83412.6
90880.7
132926
120889
95991.3
79291.6
73899.3
73390.4
73124.4
73203.9
73323.5
84111.2
83694.6
82930.8
81975.1
82333.9
76533.2
88528.5
82741
73995
69533.1
72831
72597.1
72711.4
72930.2
73093.7
83864.8
83364.4
82339
81000.8
76463.8
71357
62614.5
27981.6
46946.9
65494.4
67141.8
71599.4
72082.9
72530.7
72769.3
83623.6
83040.8
81887.8
78304.9
74577.1
65741.3
44273.2
4178.6
29017.1
53204.6
61791.5
67063.6
71400.4
72053.4
72396
83412.6
82803.2
80175.2
77338.4
71719.7
61914.1
41141.2
2261.27
19546.1
44643
56293.4
65489.3
67891.2
71628.9
72052
83215.9
82561.9
79687.6
76687.9
70042.5
59294.2
36273.4
2311.37
2214.82
31376.4
51575.7
61436.8
67072.9
71270.7
71758
83089.5
82409.3
79429.4
75570.4
69066.4
57365.1
34065.5
2450.84
2316.23
24950.6
48400.8
58890
66659.5
71077.7
71602.2
83042.3
82357.3
79340.7
75412.5
68700
56221.6
27899.1
2288.56
2165.94
26260.4
48492.3
58799.8
66639.5
71084
71600.4
83092.3
82430.9
79434.8
76315.3
69109.5
57093.3
30557.2
2381.48
2283.71
34578.4
51529.9
61255.1
67011
71285.3
71757.7
83191.6
82539.6
81217.4
76796.5
70644.3
59491.5
33794.4
2656.73
11497.3
43342.9
55532
65362.6
70760.9
71579
71987.9
83361.5
82791.3
81610.6
79970.3
73783.4
67020.7
42204.2
2368.65
24767.7
54392.5
64516.7
70604.4
71367.5
71975.3
72285.8
83572.5
83095.1
82208
81014.1
80833.1
71181.9
66435.9
65288.9
59983.5
64998
71539.9
71660.9
72003.1
72354
72577.3
83749.5
83344.2
82603.7
82574.8
81870.7
90504.9
134981
108410
91511.9
77875.3
72559.6
72492.6
72423.4
72610.2
72785.4
83855.8
83496.9
82852.8
83095.8
82935.4
91260.3
133912
118566
95381.3
79086.1
73279.9
72906.5
72667.9
72762.1
72904.5
89261.1
89734.1
90701.3
93801.2
99839.6
104881
131327
137574
112189
96535
88435.9
84038.8
81390.2
80215.8
79745
89174.4
89608.2
90558.7
93589.1
99372.8
105353
133586
143066
113872
96371.9
88116.2
83810.3
81221.4
80095.8
79645
89006.9
89346.1
90283.9
92308.5
97746.5
102096
123866
151440
118042
95825.7
86829.1
83016.6
80873.5
79857.9
79453.3
88780.1
89026.9
89662.7
91292
92107.4
100311
123600
162216
118880
93580.8
84408.7
81954.6
80322.6
79515.8
79179.1
88554.1
88702.7
89091.3
88122.6
89769.1
92393.9
105227
183764
109234
86846.8
80900.9
79211.8
79704.9
79108.4
78862.6
88368.4
88400.9
86971.9
87047.4
86199.5
86227.7
91401.8
130085
83545.4
79948.4
77074.9
78066.1
77301.3
78702.3
78571.3
88190.4
88169.9
86571.1
86352.3
83710.8
82265.2
77015.6
53183.9
30674.1
70586.3
73720.7
75316.6
76709.7
78395.9
78323.2
88077.5
88039.6
86328.1
84742
82786.6
79995.4
68245.4
16967
2259.16
58916.5
70488.3
73147.5
76274.5
78219
78175.3
88025.9
87982.9
86243
84613
82574.7
79811.9
68679.3
2248.1
2399.34
55883
69482.8
72731.9
76143.7
78174.4
78133
88058.5
88047.8
86320
86042.7
83009.7
81410.1
76107.8
19148.6
34382.9
65837.9
71552.5
74453.2
76345.9
78294.1
78222.8
88131.1
88224.6
88482
86665.8
85254.5
84416.3
87760.7
125081
82767
76227.8
74866
77281
78964.4
78560.2
78387
88285.6
88469.3
88973.5
90356.2
89776.2
95695.3
107251
173360
107726
86554.3
81681.6
80873.1
79531.1
78892.6
78631.5
88481.9
88768.6
89601.4
91505.2
96649.8
100047
124563
156203
118675
93924.6
85581.3
82076.3
80116.8
79223.1
78879.7
88636.3
89032.8
89881.5
93133
98615
104882
137685
145750
115125
95775.2
86926.5
82990.1
80493.2
79458.9
79060.6
88722.3
89160.6
90036.2
93314.8
98893.3
104240
132765
140206
113766
95859.9
87378.1
83299.8
80693.5
79587.6
79161.1
93489.1
94241.2
95555
97799.7
103181
102522
105725
108949
103089
99361.2
94540.1
90444.7
87585.1
86056.9
85328.6
93472.7
94220.4
95598.3
98166
103577
103858
108325
113295
105438
100070
94918.1
90542.8
87566.4
86014.6
85282.1
93416.3
94105.4
95674.9
98233.8
103030
105944
111814
122092
109787
101646
94649.3
90376.6
87470.3
85894.2
85179.6
93303.7
93964.4
95438.9
98364.1
100573
107919
118889
133142
118450
103121
94805.7
90117.3
87246.6
85703.2
85016.3
93164.9
93765.5
95185.6
96038.7
100301
106876
121386
141922
125900
105866
94704.2
89165.5
86947.3
85437.2
84804.9
93027
93473.7
93575
95495.7
98113.6
104979
122501
163904
125977
107634
94658.2
88928.2
85789.3
85079.9
84582.6
92901.4
93301.5
93378.9
95150.2
96785.2
104092
121839
172919
93241.5
111940
94651.6
88059.2
85474.2
84844.7
84394.6
92813.5
93192.4
93228.7
93898.2
96393.2
103715
123210
196817
162278
109760
93484.5
87166.1
85096.5
84680.3
84264.2
92749.3
93123.9
93144.4
93773.9
96252.9
103743
124748
201988
148863
105208
91999.3
86617.2
84887.8
84595.5
84186.9
92741.1
93144.7
93136.8
94773
96280.3
103667
122522
170807
135987
103208
91489.9
86742.6
84892.4
84626.5
84202.2
92778.6
93330.5
94616.1
95083.3
97351.6
103888
121298
155156
128249
103079
91882.7
87593.8
86108
84848.3
84299.9
92857
93470.2
94847.7
97674.6
99439.5
107292
120138
143455
123402
102936
93091.7
89068.9
86447
85063.2
84450.5
92946.6
93605.2
95095.6
97679.4
102313
106196
114202
126155
110927
101371
93661.7
89549.3
86737.5
85262.2
84599.7
92991.3
93737.4
94988.3
97878.4
103235
103103
108642
115152
106491
99656.3
94146.3
89907.2
86878.2
85397.7
84702.2
93005.7
93758.1
94930.8
97480.8
102651
101657
105777
111189
104330
98852.9
93903
89882.8
86930
85454
84754.5
96457.1
97048.5
98106.7
98725.4
101904
101391
100969
103024
99733
98910.6
96110
93614.6
91616
90358.6
89684
96523
97151.6
98261.5
99314.8
102678
102434
102729
104716
101504
99894.8
96848.5
93939.5
91745.9
90410.3
89705.2
96620.2
97250.1
98593.6
100251
103425
105024
108120
112165
107248
102178
97619.6
94378.5
91933.1
90454.4
89723.8
96693.3
97394.6
98847.7