/*--------------------------------*- C++ -*----------------------------------*\
| =========                 |                                                 |
| \\      /  F ield         | OpenFOAM: The Open Source CFD Toolbox           |
|  \\    /   O peration     | Version:  v2012                                 |
|   \\  /    A nd           | Website:  www.openfoam.com                      |
|    \\/     M anipulation  |                                                 |
\*---------------------------------------------------------------------------*/
FoamFile
{
    version     2.0;
    format      ascii;
    class       volScalarField;
    location    "0.015";
    object      p;
}
// * * * * * * * * * * * * * * * * * * * * * * * * * * * * * * * * * * * * * //

dimensions      [1 -1 -2 0 0 0 0];


internalField   nonuniform List<scalar> 
449343
(
113537
113668
113885
114088
114167
113882
113053
111607
109602
107254
104862
102703
100970
99771.3
99161.2
113541
113673
113893
114099
114183
113903
113080
111640
109641
107298
104908
102748
101011
99809.2
99197.3
113565
113701
113926
114140
114231
113961
113149
111722
109735
107401
105015
102852
101108
99899.8
99284
113606
113746
113979
114205
114304
114050
113255
111844
109875
107554
105173
103005
101251
100033
99411.1
113657
113802
114044
114284
114394
114159
113385
111996
110048
107742
105366
103191
101424
100192
99563.1
113711
113861
114113
114366
114489
114275
113522
112157
110231
107940
105568
103386
101603
100357
99720
113759
113913
114173
114438
114573
114379
113647
112301
110395
108119
105746
103558
101762
100504
99859.8
113795
113951
114217
114490
114633
114455
113736
112408
110511
108244
105872
103679
101876
100611
99962.5
113813
113971
114238
114514
114661
114489
113780
112456
110565
108297
105925
103732
101928
100664
100016
113814
113970
114236
114509
114655
114481
113769
112443
110545
108271
105900
103712
101917
100660
100017
113798
113951
114210
114478
114618
114437
113714
112375
110467
108184
105815
103634
101853
100609
99971.9
113772
113921
114174
114433
114564
114371
113633
112278
110355
108064
105694
103523
101759
100529
99899.5
113741
113887
114133
114383
114505
114299
113546
112176
110239
107939
105569
103407
101657
100440
99818.1
113710
113854
114095
114337
114453
114236
113471
112089
110140
107834
105464
103310
101571
100362
99746
113684
113826
114065
114303
114415
114192
113421
112032
110077
107767
105398
103248
101514
100310
99696.5
113369
113547
113865
114221
114472
114407
113704
112182
109910
107215
104522
102168
100329
99080.4
98451.4
113373
113553
113874
114234
114491
114432
113733
112219
109955
107267
104576
102218
100375
99121.9
98490.6
113398
113582
113909
114279
114545
114495
113808
112308
110061
107386
104700
102336
100482
99220
98583.8
113441
113630
113967
114350
114628
114590
113920
112440
110219
107566
104887
102512
100641
99364.8
98720.8
113495
113690
114039
114438
114733
114709
114069
112619
110416
107793
105123
102732
100836
99540
98885.6
113552
113754
114114
114531
114843
114844
114226
112812
110646
108040
105375
102966
101041
99723
99056.8
113603
113810
114181
114613
114937
114969
114374
112986
110856
108265
105606
103177
101225
99886.7
99209.8
113640
113850
114227
114670
115004
115054
114479
113068
110998
108415
105758
103320
101354
100005
99321.6
113659
113870
114248
114693
115033
115091
114528
113176
111067
108476
105812
103375
101410
100060
99377
113658
113867
114241
114682
115021
115070
114504
113146
111025
108428
105761
103337
101389
100051
99373.6
113641
113845
114210
114639
114970
115010
114433
113052
110904
108305
105635
103225
101304
99986.7
99320.1
113612
113811
114168
114585
114902
114932
114328
112919
110758
108137
105465
103079
101186
99891.1
99235.9
113579
113774
114122
114527
114832
114849
114227
112797
110609
107973
105300
102932
101065
99788.3
99143.1
113547
113739
114080
114476
114772
114776
114141
112693
110488
107840
105169
102815
100964
99700.7
99062.6
113520
113710
114048
114439
114729
114727
114085
112628
110414
107760
105091
102743
100899
99643.2
99008.8
112940
113227
113771
114488
115201
115695
115369
113652
110670
107064
103635
100839
98773.6
97421.6
96754.8
112946
113235
113784
114506
115226
115727
115406
113700
110730
107134
103706
100903
98829.9
97471.6
96801.3
112974
113268
113826
114562
115296
115806
115491
113814
110863
107295
103871
101052
98959.5
97587.1
96909.5
113021
113322
113894
114650
115404
115918
115613
113979
111048
107544
104133
101283
99155.7
97759.1
97069.3
113081
113391
113981
114763
115540
116055
115763
114172
111301
107893
104479
101580
99402.7
97970.8
97263.7
113144
113464
114074
114883
115694
116223
115953
114438
111650
108274
104878
101912
99669.8
98195.7
97467.9
113200
113529
114154
114991
115808
116391
116161
114702
111985
108594
105282
102222
99915.5
98399.1
97651.4
113241
113574
114207
115060
115894
116518
116340
114749
112214
108810
105493
102418
100082
98544.1
97784.6
113261
113593
114227
115080
115920
116539
116365
114974
112306
108883
105557
102481
100146
98606.5
97846.3
113259
113587
114213
115049
115896
116490
116310
114898
112202
108795
105414
102398
100097
98583
97833.8
113237
113557
114166
114984
115807
116406
116207
114733
111970
108576
105147
102200
99964.8
98488.9
97758.7
113204
113516
114110
114905
115705
116302
116092
114567
111737
108265
104851
101966
99791.7
98357.5
97647.3
113168
113473
114053
114827
115606
116187
115962
114381
111516
107997
104584
101746
99622.4
98222
97528.5
113133
113433
114003
114763
115526
116091
115854
114234
111341
107796
104388
101581
99488.7
98110.8
97428.7
113104
113402
113968
114720
115476
116031
115785
114148
111239
107685
104281
101486
99408.3
98041.2
97364.7
112119
112564
113450
114747
116315
117876
118659
116559
112027
106503
101834
98442.8
96124.4
94679.4
93988.3
112126
112573
113465
114772
116350
117916
118700
116623
112105
106598
101929
98525.1
96194.5
94740.8
94045.1
112157
112610
113516
114845
116447
118024
118795
116782
112292
106843
102158
98715.6
96354.3
94880.4
94174.3
112208
112672
113599
114962
116595
118184
118821
117021
112475
107252
102548
99022.8
96601.4
95090.6
94366.4
112275
112752
113709
115114
116802
118338
118326
117070
113650
107920
103110
99450.9
96924.6
95354.9
94603.4
112346
112838
113834
115313
117065
117740
118447
117384
114178
109614
103830
99955.9
97291.1
95641.1
94855.8
112410
112916
113940
115458
116494
117949
118696
117754
114656
110177
105545
100434
97635.6
95906
95085.2
112455
112969
114006
115543
116591
118121
118949
117980
115036
110602
105927
100726
97871.5
96095.9
95250.2
112478
112989
114022
115559
116631
118169
119014
118193
115217
110776
106110
100812
97948.2
96170.9
95325
112475
112977
113994
115505
117309
118090
118951
118130
115104
110662
104729
100661
97862.7
96128.5
95300.8
112449
112937
113915
115365
117126
118754
118889
117904
114767
108940
104095
100296
97644.6
95988.2
95193
112412
112888
113840
115248
116949
118611
119407
117783
113456
108268
103527
99903.9
97384.1
95802
95040.6
112371
112837
113767
115136
116797
118422
119341
117465
113113
107740
103059
99566.9
97142.4
95617.4
94883.3
112333
112792
113707
115053
116684
118288
119203
117242
112834
107402
102756
99329.8
96960.3
95471.2
94755
112303
112759
113667
115002
116620
118215
119121
117126
112692
107243
102604
99202.2
96856.3
95383.8
94676.2
110707
111322
112604
114641
117485
121054
124719
121824
114065
104697
98381
94560
92178.5
90785.8
90149.4
110713
111332
112620
114669
117527
121107
124763
121872
114161
104820
98496.3
94656
92260.5
90858
90216.2
110743
111370
112675
114755
117663
121267
124902
122033
114456
105150
98784.7
94879.5
92447.1
91021.1
90366.3
110795
111434
112767
114918
117949
121595
122807
122391
116427
105979
99364.2
95269.1
92741.8
91269.5
90591.6
110863
111518
112897
115120
118225
120275
123064
122746
117090
108965
100222
95823.5
93148.6
91589.4
90874.2
110939
111618
113064
115479
117533
120709
123454
123172
117802
110118
103134
96592
93618.4
91949.4
91180.7
111005
111695
113169
114968
117733
121070
122873
123067
118892
111955
104238
98985.2
94053.3
92270.6
91460.2
111059
111760
113294
115045
117900
121305
123214
123613
119703
112836
105055
99561.5
94477.4
92509.9
91670.3
111084
111779
113261
115075
117938
121370
123337
123891
120060
113239
105333
99780.7
94496.8
92613.2
91757.1
111088
111779
113246
115692
117812
121202
123285
123753
119833
112035
104823
97620.2
94408.4
92570.1
91725.4
111063
111730
113135
115401
118586
120861
123895
123975
118845
111152
101760
97024.8
94089.1
92370.6
91580.2
111027
111680
113040
115233
118330
122073
123539
123481
118033
107513
100743
96427.7
93716.5
92120.4
91380.2
110985
111625
112953
115069
118031
121684
125489
122955
115464
106318
99940.9
95931.7
93389
91878.2
91178.3
110947
111578
112888
114971
117877
121487
125298
122610
115020
105815
99508.5
95616.2
93152.4
91692
91017.7
110916
111544
112846
114915
117804
121398
125208
122439
114835
105590
99303.8
95452.9
93022.3
91584.6
90922.2
108451
109189
110787
113533
117900
124792
130322
135244
120810
99157.9
92021.3
88620.8
86681.6
85677.2
85257.4
108454
109194
110798
113555
117944
124846
130347
135282
120861
99272.3
92134.1
88715.9
86768.6
85756.3
85331.3
108478
109225
110842
113619
118062
125016
130452
135418
121029
99525.5
92368.8
88917.2
86965.5
85934.4
85496.7
108522
109281
110927
113787
118582
123014
130739
135764
121486
104715
92999.8
89248
87277.3
86210.3
85747.4
108580
109347
111025
114002
117516
123489
131335
133872
123609
106270
97113.3
89856.1
87691.4
86561.7
86066.5
108653
109429
111212
113731
117824
122821
129943
133462
124750
109965
98528.1
93171.9
88254.7
86963.7
86418.8
108712
109484
111305
113893
118159
123093
129445
134357
126858
112743
101631
94213.2
88765.2
87325.3
86739.8
108764
109533
111377
114071
117608
122782
129879
135373
128794
114731
103051
95077.5
91303
87571.8
86978.3
108804
109582
111421
114077
117663
123363
130068
135923
129888
115827
103755
95406.5
89429.1
87759.5
87101.4
108827
109615
111418
113966
118275
123331
129895
135587
129276
115413
103325
95180.5
89345.3
87734.1
87070.4
108812
109595
111303
114324
117924
124108
130362
135629
127112
112580
100173
91582
88908.7
87507.6
86890.3
108789
109565
111240
114135
118966
123557
131523
136983
123604
107461
94905.8
90746.3
88467
87202.8
86644.5
108753
109514
111155
113961
118441
125438
131082
136299
122555
101069
93827.8
90192.3
88063.7
86903.8
86400.1
108719
109472
111097
113882
118311
125255
130845
135961
121911
100506
93353.7
89836.4
87780.2
86681.3
86209.7
108691
109440
111058
113829
118235
125168
130755
135810
121676
100241
93108.2
89645
87627.2
86556
86099.1
105129
105839
107431
110349
115349
122293
138948
168641
123349
90371.5
80734.9
79896.6
79485
79447.4
79477.7
105126
105836
107429
110350
115360
122303
138949
168638
123299
90398.5
80804.7
79970.7
79569.3
79528.1
79554.4
105137
105846
107435
110327
115317
122329
138943
168659
123338
90552.1
80872.8
80126.3
79759.7
79707.5
79726
105162
105869
107455
110237
114834
122847
139077
168677
123342
91057.7
84882.1
80225.5
80054.6
79987.1
79988.6
105190
105882
107411
110470
115041
122138
136290
168803
125084
96110.9
85576.4
83297.4
80405.7
80351.5
80327.1
105233
105873
108010
110675
114950
122334
135123
164202
131731
100229
89604.2
84338.1
82940.7
80771.9
80711.3
105285
105924
108113
110826
115157
122096
135271
164852
135583
104268
93303.8
87411.7
83644.8
81224.5
81074.8
105333
105980
108270
110962
115290
122219
135410
165851
143396
109813
96062
88800.4
84453.4
81540.9
81308.8
105397
106045
108278
111044
115377
122275
135410
166214
148344
112834
97537
89517.8
84764.4
81710.2
81482.1
105439
106094
108284
110976
115357
122249
135290
165415
144489
110743
96792.2
89239.2
84658.5
81634.7
81434
105464
106182
107749
110862
115470
122574
135206
164537
137765
106089
93251.4
86238.6
81859.2
81421.1
81230.9
105470
106198
107824
110637
115193
123184
136426
168924
127294
99812.4
88059.3
82051.1
81418.4
81075.9
80952.6
105451
106175
107792
110713
115708
122762
139223
168908
125095
92904.4
82609
81586.8
80970
80744.8
80677.7
105427
106151
107766
110708
115727
122681
139219
168948
124411
91949.7
82205.3
81211.8
80656.7
80500.5
80466.8
105402
106124
107735
110672
115681
122619
139222
168947
124251
91612.2
81959.3
81013.1
80489.6
80363.3
80345.9
100679
101099
102040
103796
106731
113654
121437
119907
27737.1
58328.9
64843.4
68679
71099.4
72605.6
73295.3
100670
101088
102028
103781
106722
113627
121413
119820
26601.2
58272
64860.1
68748.5
71187.2
72686.4
73371.5
100668
101077
102010
103755
106676
113572
121366
119762
26530
58391.6
64995.4
69000.9
71402.6
72872
73545.7
100674
101062
101972
103581
108116
113263
121197
119693
25887.4
58880.2
66928.7
69498.6
71781
73172.8
73819.4
100677
101043
101899
104910
108047
113838
122046
119480
26768.3
63274.8
69490.7
71772.8
72424.8
73623.5
74184.7
100686
101047
103202
104994
108722
114271
121964
118967
28802.1
66589.2
72665.5
73056.5
74475.7
74197.4
74602.5
100751
101118
103343
105108
109181
114409
121869
118055
42836.8
74209.2
76426.4
75853.3
75232.7
74705.8
74994.7
100821
101190
103444
105890
109368
114550
121680
116143
90540
86208.4
80655.9
78436
75976.4
75036.3
75242.7
100889
101274
103526
105976
109484
114640
121497
114340
103964
92327.8
82855.1
79423.2
76319.2
75162.8
75379.4
100935
101326
103571
105410
109490
114654
121517
114728
85448.8
87091.3
81624.6
78112.1
76236.4
75021.4
75292.8
101002
101406
102342
105417
109162
114610
121735
116494
56548
77023
78244.1
75101.2
73855
74661.8
75069
101031
101450
102421
104098
108587
113425
120965
118277
35011.7
66899.1
70644.6
71439.1
73170.8
74246.7
74759.7
101024
101454
102428
104217
107143
113779
121391
119180
29231.1
61057.5
66837.9
70500.2
72606.8
73882.7
74463.7
101007
101443
102413
104193
107139
113972
121592
119628
28323.7
59981.9
66309.1
69994.7
72254.5
73624.3
74243.3
100986
101420
102386
104165
107105
113977
121649
119811
28641.5
59725.1
66105.4
69793.1
72078.2
73483.1
74119.6
95379.8
95258.8
94989.8
94580.8
94442.2
98559.4
102514
116143
5223.85
35925
50389.1
58174.9
63276.8
66259
67601.8
95369.2
95246.8
94978
94570
94447.2
98533.5
102488
115951
3184.61
35954.4
50401.8
58265.6
63367.6
66335.8
67672.3
95367.7
95240.1
94976.1
94615.6
94466.7
98497.1
102449
115910
3377.65
36171.3
50693.2
58571.1
63599.9
66527.7
67841.3
95381.2
95234.6
94972.5
94742.5
97464.9
98565
102345
115904
2493.22
36815.7
51237.9
59283.4
64036.7
66854.6
68116.4
95409.2
95256.9
95077.1
96996.1
97680.2
100695
103670
116056
2426.51
37316.8
52783.8
60749.4
64751.2
67365.9
68499.2
95453.2
95388.6
96866.8
97176.6
99267.5
101854
103869
115955
2724.86
40268.4
55102.9
61963.4
66172.8
67949.9
68935.3
95553.8
95520
97013.5
97434.7
100291
102234
104278
116255
15647.6
46712.4
58319.5
63885.7
66961.8
68429.2
69300.6
95645.6
95623.4
97170.2
98726.1
100644
102754
104870
116565
15001.8
52962.2
61442.3
65606.3
67627.2
68749.8
69526.7
95719.1
95716
97294
98885.9
100919
103168
105370
116866
2238.84
53185.5
62765.3
66326.8
67881.9
68837.5
69618.8
95748.7
95738.3
97345.7
97946.2
100977
103201
105362
116798
72160.3
56240.6
62202.9
65711.7
67709.6
68680.6
69511.3
95787.4
95695.8
95673.6
97789.9
100148
102912
104921
116549
18693.5
50259
59820.3
63740.2
66027.1
68244.9
69252
95785.2
95683.5
95523.5
95446.1
98386.4
99684.1
103482
116581
7559.63
42488.3
54909.2
60941.2
65250.8
67772.4
68916.9
95761
95668.9
95469.7
95197.1
95123.7
99194.3
103003
116312
4247.38
38532
52330.4
59873.4
64628.2
67384.6
68617.9
95736.3
95638.5
95419
95070
94991.8
99063.7
102944
116287
4173.66
37429.1
51623.6
59336.6
64281.3
67131
68407.8
95711.8
95612.4
95383
95022.1
94919.2
99025.6
102918
116293
4242.04
37025
51460.5
59133.8
64113
67000.2
68293.3
89953.5
89226.4
87707.7
85257.7
84782.2
83271.1
85681.3
2315.02
27493.5
42833
51846
58061
61774.8
63501.5
89942.5
89213.9
87693.7
85245
84761.4
83251.3
85660.6
2294.81
27473.6
42842.8
51930.8
58126.6
61830.7
63552
89947.8
89222.4
87700.3
85273.3
84805.9
83276.2
85640.3
2298.52
27404.6
43097.5
52141
58299.6
61983.8
63681.5
89985.4
89263.3
87737.1
85467.8
85164.2
83314.3
85604.9
2293.6
27811.3
42236.3
52708.2
58624.1
62249.5
63895.8
90071.6
89373
88008.1
87890.5
85933.6
85841.7
86690.9
2296.14
26221.1
42467.5
52855.3
59153.9
62659.9
64198.1
90189.2
89648
89781.7
88420.9
87791.4
87383
87248.7
2294.05
27957.2
43444.1
53590.3
59547.3
63012.8
64550.2
90329.4
89844
89946.6
88889
89225.4
88332.9
88470.5
5730.64
30820.6
45163.8
54286
60095.9
63291.4
64801.9
90441.3
89991.8
90182.1
90227.3
90057.3
89720
90706.4
2072.06
30937.6
46053.7
54973.3
60368.2
63491.9
64954.4
90520.7
90086.8
90343.4
90516.3
90638.9
90968.7
93213
2267.87
24576.9
45436.4
55112.3
60483.4
63530.6
65007.8
90523.9
90063.4
90394.4
89632.4
90625.4
90897.1
92949.4
2193.06
20699.1
45001.5
54806
60449.2
63450.8
64929
90491
89873.8
88745.1
89023.8
89223.8
89694.1
90468.1
2301.98
28881.7
44981.9
54270.5
59880.2
63222.7
64707.9
90417
89759.5
88380.6
86339.9
86487.3
84991.9
87376.8
6744.25
29559.1
44356
53696.3
59407.2
62858.1
64441.7
90357.4
89680.3
88256.1
85973.2
85688.1
84276.9
86734.5
2305.91
28643.9
44162.9
52990.4
58992.8
62567.6
64215
90317.5
89624.7
88176.2
85828.1
85451.1
84011.9
86443.7
2294.96
28253.4
43658.3
52669.2
58765.3
62383.7
64062.3
90289.2
89593.3
88133.2
85765.1
85322
83896.1
86336.6
2306.48
28129.6
43554.8
52513.9
58646.2
62288.6
63977.9
85351.7
84068.3
81363.4
76600.5
73940.8
65375
60212.6
2649.03
2299.82
27190.5
40894.8
50044.5
56255
60007.1
61795.3
85330.7
84042.1
81323.9
76540.2
73883.3
65313.9
60182.6
2297.53
2297.73
27021.8
40828.8
50071.4
56261.8
60020.4
61806.6
85321.1
84032.2
81285.3
76437.4
73827
65213.8
60142
2337.17
2296.48
23082.7
40960.4
50121
56319.3
60080.5
61854.7
85343.9
84065.4
81243.5
76424.2
73804.1
65089.9
60137.1
2355.6
2300.27
23551.7
38260.5
50319.2
56433.7
60195.6
61940.4
85434.9
84172.1
81333.9
79693.1
73697.6
68428.9
62382
2286.62
2299.21
21658.7
37404
48871.6
56635.6
60399.8
62063.5
85572
84353.3
83535.9
79892.1
76214.1
70424.7
63090.1
2311.63
2301.41
22815.3
37441.7
49122.2
55807.8
60485.7
62227.4
85709.9
84538.4
83767.7
80242.6
77802.2
71693.5
64861
2208.86
2695.59
24718.3
38092.3
48580
55980.5
60523.3
62299.7
85825.8
84715.8
84006.1
82087
78862.3
74159.8
69706.6
22673.9
2810.64
24782.4
37606.9
48212.3
55955.6
60552.1
62337.7
85912.4
84824.6
84182.4
82456.8
79784.4
77112.3
80278.4
1863.42
2285.55
16438.9
36042.8
47891.1
55906
60535.1
62347
85915.6
84818.4
84235.4
81266.4
79766.2
76760.2
78431.2
2204.13
2230.77
15867.1
35771.8
48044.8
55899
60543.3
62328.7
85854.5
84687.1
82133.9
80943.4
78025.7
73902.5
68707.9
2293.96
2299.64
19833.3
36413.1
48881.9
56727.1
60532.6
62247.8
85758.1
84556.7
81916.9
77373.1
75045.4
66847.8
62374.3
2407.45
4179.41
22819
38936.4
50599.9
56690.7
60413.9
62160.2
85703.1
84471.4
81844.6
77166.2
74695.9
66268.5
61395.6
2769.51
2304.45
24356.4
41445.3
50489.5
56619.4
60330.4
62086.2
85672.1
84426.5
81794.7
77131.4
74595.7
66121.1
61137.9
2475.03
2299.14
27762.2
41233.2
50456.2
56574.8
60277.9
62040
85650.6
84404.8
81773.2
77113.3
74535
66098.7
61114.4
2575.84
2299.36
27770.2
41264.1
50392.2
56541.4
60243
62006.9
82442.5
80759.3
77164.3
70759.9
59654.5
48399.2
21221.7
2306.58
2312.25
30327.6
43401.1
51932.8
57629.7
61036.7
62659.5
82397.3
80703
77068
70619.2
59440.8
48175.4
21350.6
2289.33
2303.64
29967.1
43232.5
51852.8
57561.4
60994.5
62622.6
82343.8
80638.4
76956.8
70438
59093.2
47684.1
21312.9
2284.74
2303.77
24339.3
43037.8
51760.2
57484.4
60939.6
62575.2
82299.7
80603.5
76813.5
70286.9
63551.4
47228.9
21257.6
2273.9
2301.59
24250.6
38695.4
51629.5
57370.7
60868.5
62518.8
82317.7
80639.9
76845.5
73038
63541.6
51382.3
27653.5
2278.81
2291.1
20961.3
36790.7
48707.2
57259.7
60828
62462.8
82393.4
80705.7
78708.4
73155.7
66141.1
53771.7
28767.9
2254.04
2299.52
21667.9
35941.4
48467.1
55269.6
60696.5
62402.3
82471.4
80794.7
78912.9
73373.8
67756
54836.8
29781.4
2305.04
5848.72
22123.5
35641.6
46808.4
55059.9
60535.1
62295.5
82557.8
80920.9
79135.1
75257.3
68662.3
57195.2
33503.9
2275.68
2101.25
13923.6
33747.9
45608
54786.6
60415.8
62222.1
82643.9
81023
79308.7
75608.9
69556.5
60795.8
57769.4
4465.86
2270.19
2300.65
31980.1
45064.4
54656.3
60369.4
62196.5
82679
81073.4
79389.5
74226
69620.1
59940.8
43797.1
2290.94
2370.62
15740.3
32776.3
45787.3
54754
60464
62246.2
82658.3
81061.6
77502.3
74194.3
67803.6
56829.7
32551.1
2284.35
2279.9
18633.9
34040.1
47800.3
56906.1
60622
62321.5
82624.1
80992.1
77350.6
71053.9
64739.9
48663.6
23936.8
2252.61
2302.16
21797.8
38494
51412.7
57216.9
60752.8
62427.4
82633.5
80980.6
77415.9
71046.7
59868.8
48506.5
22115.6
2286.73
2318.35
24747.7
43181.1
51766.2
57439.4
60884.9
62521.5
82646.9
80994.7
77448.3
71119.5
60061.8
48766.3
21787.9
2288.88
2304.66
30429.8
43368.7
51939.6
57569.8
60967.8
62583.4
82649.5
81004.2
77483.5
71201.5
60214.9
49034.1
21832.7
2282.44
2306.01
30599.4
43475.9
51994.9
57627.3
60998.4
62605
81879.6
80206.7
76606.4
70285.3
59560
45869.3
9754.11
2303.5
13040.6
39497.9
50260.8
57269
61844.6
64522
65798.2
81803.2
80114.4
76455.9
70040.6
59255.9
44843.8
9754.93
2275.62
11670.1
39023.5
49895
57054
61698.2
64425.7
65716.6
81694.8
79982.1
76239.9
69688.1
59058.7
43887.8
10606.6
2291.55
3928.45
30264.3
49603.4
56806.6
61484
64271.7
65586.5
81572.6
79848.8
76011.6
69465
60737.4
42798.7
10331.8
2290.13
2304.45
29376.7
43849.6
56408
61158.9
64046.8
65407.7
81497.4
79783.3
75964.9
70778.8
60286.1
45066.8
20303
2293.86
2299.44
24112.9
40686.3
52436
60815.2
63816.4
65203.1
81473
79751.6
76841.3
70641.3
61722.8
46308.3
20610.7
2306.64
2317.29
24049
38773
51661.8
57982.5
63533.7
64987.5
81453.1
79720.5
76869.3
70591.4
62545.3
46640.9
22717.9
2269.01
7028.64
23416
37684.1
49073.3
57433.1
63227.6
64757.1
81475.5
79748.2
76956.1
71759.8
62762.8
47159
22151.8
2283.65
2191.88
17013
35276.3
47227.6
56959
63010.6
64606.6
81537
79822.6
77055.2
71901.1
62978.3
46766.1
5381.38
2299.28
3926.42
5485.84
33235.9
46537.4
56776.1
62959.5
64563.3
81609.7
79924
77144.6
71040.1
63161.6
46784
14270.9
2258.92
2246.7
16490.7
34301.9
47767.9
57007.1
63108.2
64659.8
81666.5
79991.2
76291.1
71330
62576.8
47504.8
22382.4
2290.75
2298.33
20954.6
36490.4
50866.8
60166.7
63365.5
64838.4
81729.3
80047.1
76311.2
69935.8
61302.5
43970.1
19579.1
2272.3
2334.07
25555.2
42873.2
55861.7
60716.5
63674.9
65073.3
81824.3
80146.1
76491.7
70086.5
59751.3
44317.1
11996.6
2302.78
10547.5
30516.5
49513.5
56535.7
61166.4
63961.4
65284.2
81899.9
80242.3
76656.4
70375.2
59687.6
45765.6
9757.75
2295.59
14175.7
39661.1
49933.1
56909.5
61449.5
64147.2
65429.5
81936.7
80294.9
76760.6
70571
59990.6
46544.3
9782.33
2229.42
12104.4
39414.6
50080.6
57081.7
61585.3
64233.1
65497
83817.1
82662.7
80246.1
76394.8
68889.8
60065.4
39228.9
2494.21
45871
58160.8
62007.8
65963.1
68465.3
69955.1
70699.8
83712
82530.2
80028.9
75950.1
68114.5
58299.3
31272.8
2324.41
43472.4
57432.7
61422.6
65632.3
68252.9
69818.3
70587.6
83551.4
82327.9
79705.3
75254
68773.1
54132.4
23782.3
2370.59
21339.7
45828.6
61164.7
65201
67945.6
69602.8
70404.6
83361.5
82091.8
79304.4
74696.2
66820.2
51847
21869.2
2856.66
8538.08
42650.4
54315.9
64577.1
67447.7
69283.1
70149.8
83198.9
81889.5
79050.7
74054.4
65451.9
50795.2
24681.8
2471.23
2326.35
33801.5
50087.7
59904.3
67006.2
68943.3
69860.4
83079.7
81755
78690.5
73386.6
64805.7
49649.8
22950.6
2222.11
6577.22
32210.8
46868.7
58753.2
63578.2
68593.5
69567.6
82966.7
81605.8
78459.7
72960.3
64382.1
48678.9
22299.9
2278.55
12551.9
30578
44801.6
55442
62853.1
68216.7
69271.3
82925
81542.6
78373.5
73068.2
63901.3
47983.2
23882.7
2482.01
74615.3
29057.8
41922.9
53077.9
62274.1
67947.6
69075.2
82955.8
81583.6
78406.3
73050
63668.1
46369.1
13453.3
2230.35
2335.95
10650.5
39169.9
52248.5
62059.6
67881.3
69015
83054.4
81727.1
78570.6
73104.2
64113.9
47052.7
15503
2290.81
2276.26
18907.1
40392.9
53922.6
62336.5
68033.6
69121.2
83175.5
81867
79039.1
73799.9
65139.6
50022.2
24377.3
2283.11
5218.38
28006.8
44015.3
57841.9
66110
68300.8
69331.9
83321
82064.1
79326.7
74829.6
66512.1
52420.2
26028
2305.88
7043.43
36418.4
52669.3
63698.4
66763.4
68702.9
69621.4
83488.5
82284.2
79718.1
75397.8
69293.5
54132.6
24068
3108.11
21668.7
45107.4
60815.1
64650.8
67379.8
69069.8
69889.8
83619.6
82458.4
80006.6
76075.1
68512.2
59033.1
36577.6
2326.91
45691.6
57715.4
61284
65251.3
67773.2
69315.1
70081.3
83687
82553.4
80179.6
76448.8
69209.7
60352.5
42417.4
2347.2
47617.6
58319.6
61741.5
65559.8
67970.9
69439.1
70176.8
87656
87350.8
86829.3
87201.3
88109.4
95616.8
139588
147653
104641
84108.8
78072.1
77036.4
76568.9
76567.9
76661.1
87536.2
87190.3
86582.7
86654.8
87146.6
94243.7
139049
128253
101361
82818.5
77245.3
76634.8
76332.3
76415.1
76538.9
87342.9
86929.7
86199.6
85314.6
85948.5
80844.3
98417.8
95645.1
83623.9
73507.7
76116.3
75868.1
75949.9
76171.2
76337.3
87104.1
86605.5
85597
84323.7
80100.5
75963.3
73435.1
34654
51677.5
69035.7
70541.2
74935.2
75395.3
75824.8
76059.3
86881
86296.5
85136.5
81693
78155.7
69681.3
49703.1
4780.29
27031.8
56647.4
65633.9
70750.8
74813.9
75437.5
75744.6
86706.3
86088.2
83544.6
80737.5
75145.3
65142.2
41386.4
2311.01
22690.3
51197.8
61172
69444
71581.4
75049.7
75445.6
86533.3
85866.9
83096.3
80079.7
73433.2
62265.9
36536.9
2283.48
26017.6
43828.2
57585.6
65686.4
70801.5
74680.5
75143.2
86447
85750.7
82895.4
79060.2
72456.5
60191.7
35868.1
16909.1
2261.67
31334.6
53575.6
63016
70254
74417.8
74934
86446.2
85754.8
82882.8
78983.6
72135.6
58711.6
26711.2
2329.4
2373.33
20606.5
51204.1
62248.5
70012.3
74326.6
74850.6
86542.6
85895.6
83077.9
80070.1
72911.1
60654.8
30727.7
2083.16
2277.93
30364.6
53194.3
64174
70189.2
74434.5
74923.1
86682.2
86076.2
84867.2
80826.4
75199.3
65475.5
44563.3
4495.07
20403.3
45664.2
57959.4
68319.8
73818.4
74671.6
75098.4
86868.5
86358.8
85336.3
84050.4
78998
75273.2
61651.9
20353.2
45168.2
60272.4
68040.9
73767.8
74482.5
75066
75369.8
87076.4
86660.6
85935.8
85076.3
85916.4
78887.9
90928.2
102952
85716.3
71851.2
75244
75005.6
75149.4
75436.1
75638.4
87236.5
86893.7
86284
86379.2
87169.4
93461.8
138778
134498
102817
82560.8
76767.7
75933.3
75598.8
75700.3
75837.1
87317.9
87015.9
86484.4
86830
87983.2
94253.3
137130
149631
105709
83742.1
77583.9
76364.3
75836.3
75839.5
75938.3
92166
92622.5
93568.3
96579.8
102290
106943
130032
132156
114447
99737.9
91586.5
87084.9
84419.3
83245.5
82773.7
92066.5
92489.2
93429.8
96384.6
102202
107524
134983
144764
115993
99056.6
91103.5
86796.3
84221.1
83111.9
82666.6
91892.7
92224.7
93168.9
95197.6
100534
105260
124800
151674
119134
98903.2
89849.4
86036.8
83884.6
82886.4
82487
91660.3
91905.6
92550.8
94230.6
95203.3
103528
124749
159757
121985
96879.9
87547.9
84985.8
83374.7
82568.9
82236.5
91433.6
91587.4
91969
91197.8
93109.6
96486.2
111302
189786
115110
90836.1
84291.4
82453.8
82789.2
82201.9
81947.7
91256.4
91274.6
89953.3
90150.3
89734.3
90772.3
100333
176003
98817.4
83917.4
80549.4
81333.4
80555.6
81809.2
81675
91072.1
91046.2
89555.2
89453.1
87239.2
87015.1
85002.5
10225.2
30311.5
71766.1
76949.3
78724.6
79982.6
81494.9
81418.8
90966.9
90913.6
89328.3
87867.7
86213.9
84240.1
75469.2
2214.52
2322.01
58656.2
73666.8
76555.8
79513.8
81272.4
81229.5
90929.3
90872.2
89267.6
87747
85927.8
83510.2
72424.4
10105.2
2288.49
56270.2
72466.9
75960.6
79280.8
81154.6
81122
90982.9
90967.6
89390
89225.4
86559.3
85828.4
82370
16922.7
11100
65954.7
74048.9
77411.3
79334.4
81196.5
81133.3
91078.4
91178.7
91455.9
89957
89141.1
89897.6
100876
151771
80921.2
77496.2
77235.1
80029.7
81746.5
81379.9
81229
91241.8
91441
91978.5
93407.3
93413.4
99501.4
110417
134206
106556
88621.4
84170.2
83565.5
82286.1
81676.9
81427.7
91428.8
91725.3
92591.3
94441.4
99466.6
102865
120577
145985
114674
96115.5
88286.5
84793.4
82850.9
81978.2
81638.7
91561.8
91957.7
92838.8
95580.5
101464
106341
132229
143748
113978
97825.3
90046.2
85715.9
83243.9
82206.8
81797.3
91621.4
92054.5
92953
95735.1
101678
106031
129073
135222
112923
98521.8
90579.3
86038.5
83440
82320.9
81876.2
96042.2
96747.3
97953.4
100047
104749
103572
105694
108327
105275
101308
96998.2
93080.4
90332.4
88844.6
88132.8
96008
96715.6
98018
100394
105555
105445
109409
113935
106820
102119
97354.9
93131.5
90279.9
88782.6
88071.1
95932.3
96582
98073.7
100487
104881
107690
112820
122765
111196
103744
97141.9
92999.8
90182.6
88662.7
87967.8
95797.6
96425.4
97826.6
100601
102737
109655
120138
133384
120512
105431
97310.5
92735.1
89975.2
88475
87809.9
95639.1
96219.7
97578.2
98435.5
102640
109245
123327
143107
128337
108355
97214.7
91844
89680.3
88217.1
87604.4
95482.8
95903.3
96033.8
97958.1
100712
108143
126948
160157
133482
108997
96841.9
91567.2
88582.7
87876.3
87383.5
95335.8
95710.6
95817.8
97608.3
99516
107674
128376
183648
148426
110313
96467.9
90758.7
88278.8
87638.5
87185.7
95223.8
95572.7
95640.8
96361.2
99073.4
107017
128529
207962
171515
112322
96102.4
90028
87948.8
87443.1
87022.6
95143.9
95485.9
95533.1
96195.1
98808.8
106627
127998
192051
169407
111565
95419
89588.8
87710.6
87294.1
86888.5
95127.9
95494.7
95510.2
97092
98731.8
106378
126345
176270
144110
107305
94456.8
89519.4
87595.1
87245.1
86829.9
95158.5
95656.1
96834
97291.4
99518.7
105792
120967
138304
122185
103596
93922.2
89944.2
88534.2
87348.5
86838.1
95229.2
95782.2
97009.7
99420.4
100997
107268
116788
130977
118185
102665
94560.8
91126.7
88753.5
87489.8
86920.6
95304.3
95889.9
97241.6
99346.2
103329
106216
112819
122065
109608
101240
95155.2
91473.2
88971.1
87626.2
87011.5
95332.5
95983.8
97200.4
99251.2
104213
103862
106571
110680
103579
100207
95722.5
91737.1
89107.7
87728.7
87076.1
95327.8
95984.6
97148.5
98932.2
103701
102599
104141
106563
102098
99719.9
95461
91709.5
89146.6
87761
87100.5
98703
99236.8
100176
100695
103518
102655
102695
106072
102467
100693
98374.8
95958.9
94107.5
92905
92261.3
98740.6
99311.5
100342
101220
104371
103980
104217
105547
103233
101865
99016.7
96243.5
94207.7
92933.6
92261.3
98794.7
99363
100586
102076
104848
106406
109341
113286
108746
104037
99767.8
96678.8
94370.3
92965.3
92266.3
98819.9
99458
100769
103023
104910
109090
114324
117994
114539
106813
101241
97162.2
94564.8
92988.1
92252.6
98813.1
99485.3
100967
102167
105791
110524
117588
123553
120160
110975
102855
97495.9
94697.7
92944.7
92194.9
98751.1
99422.3
99909.3
102372
105635