/*--------------------------------*- C++ -*----------------------------------*\
| =========                 |                                                 |
| \\      /  F ield         | OpenFOAM: The Open Source CFD Toolbox           |
|  \\    /   O peration     | Version:  v2012                                 |
|   \\  /    A nd           | Website:  www.openfoam.com                      |
|    \\/     M anipulation  |                                                 |
\*---------------------------------------------------------------------------*/
FoamFile
{
    version     2.0;
    format      ascii;
    class       volScalarField;
    location    "0.015";
    object      p_rgh;
}
// * * * * * * * * * * * * * * * * * * * * * * * * * * * * * * * * * * * * * //

dimensions      [1 -1 -2 0 0 0 0];


internalField   nonuniform List<scalar> 
449343
(
113400
113531
113748
113950
114030
113745
112916
111470
109464
107117
104725
102566
100833
99634
99023.9
113423
113556
113775
113982
114065
113786
112962
111523
109523
107180
104790
102630
100893
99691.5
99079.5
113467
113603
113828
114042
114132
113863
113051
111623
109637
107303
104917
102753
101010
99801.7
99185.9
113527
113667
113900
114126
114226
113971
113177
111766
109796
107476
105095
102927
101173
99954.3
99332.6
113598
113743
113985
114225
114336
114100
113326
111937
109989
107683
105307
103132
101365
100133
99504.3
113672
113822
114073
114327
114450
114235
113483
112118
110192
107901
105529
103346
101564
100318
99680.8
113739
113894
114154
114419
114553
114359
113627
112282
110376
108099
105726
103538
101742
100484
99840.2
113795
113951
114217
114490
114633
114455
113736
112408
110511
108244
105872
103679
101876
100611
99962.5
113833
113990
114258
114534
114681
114509
113799
112476
110585
108317
105945
103751
101948
100683
100035
113853
114009
114275
114549
114694
114521
113808
112482
110584
108311
105940
103751
101957
100700
100056
113857
114010
114269
114537
114677
114495
113772
112434
110526
108243
105874
103693
101912
100668
100031
113850
114000
114253
114511
114643
114449
113711
112356
110433
108143
105773
103602
101837
100607
99978
113839
113985
114232
114481
114603
114397
113644
112274
110337
108037
105667
103506
101756
100538
99916.2
113828
113971
114213
114455
114571
114354
113589
112207
110258
107952
105582
103428
101688
100480
99863.7
113821
113963
114202
114440
114552
114329
113558
112170
110215
107905
105535
103385
101651
100448
99833.9
113231
113410
113727
114083
114334
114270
113566
112044
109773
107078
104385
102030
100192
98943.1
98314.1
113255
113436
113756
114117
114373
114314
113616
112101
109838
107149
104458
102101
100257
99004.2
98372.9
113300
113484
113811
114181
114447
114397
113709
112210
109963
107288
104602
102238
100384
99121.9
98485.7
113363
113552
113888
114271
114549
114512
113842
112361
110141
107488
104809
102434
100562
99286.3
98642.3
113436
113632
113980
114379
114674
114650
114010
112560
110357
107735
105064
102673
100777
99481.2
98826.8
113513
113714
114075
114492
114804
114805
114187
112772
110607
108001
105336
102926
101002
99683.7
99017.6
113583
113790
114161
114593
114917
114949
114355
112967
110837
108246
105587
103157
101206
99867.1
99190.2
113640
113850
114227
114670
115004
115054
114479
113068
110998
108415
105758
103320
101354
100005
99321.6
113678
113889
114268
114712
115052
115110
114548
113195
111087
108495
105832
103394
101430
100080
99396.7
113697
113906
114280
114722
115060
115109
114543
113185
111064
108467
105800
103376
101428
100090
99412.9
113700
113904
114269
114697
115029
115068
114491
113111
110963
108364
105693
103284
101363
100046
99378.9
113690
113890
114246
114663
114980
115011
114407
112997
110836
108216
105544
103157
101265
99969.6
99314.4
113677
113872
114220
114625
114930
114947
114325
112895
110707
108071
105398
103031
101163
99886.4
99241.2
113665
113856
114198
114594
114889
114894
114259
112811
110606
107958
105287
102933
101081
99818.4
99180.3
113657
113847
114186
114576
114867
114864
114223
112765
110551
107898
105228
102880
101037
99780.6
99146.1
112803
113090
113634
114350
115063
115558
115231
113514
110533
106927
103497
100702
98636.3
97284.3
96617.4
112828
113117
113666
114389
115109
115609
115288
113582
110613
107016
103588
100786
98712.1
97353.8
96683.6
112876
113170
113728
114464
115198
115708
115393
113715
110765
107197
103773
100954
98861.4
97489
96811.4
112943
113244
113815
114571
115325
115839
115534
113900
110969
107465
104055
101205
99077.2
97680.6
96990.8
113022
113332
113922
114704
115481
115996
115704
114113
111242
107834
104420
101522
99343.9
97911.9
97204.8
113105
113425
114035
114843
115655
116184
115914
114399
111611
108235
104839
101873
99630.6
98156.5
97428.6
113181
113509
114134
114971
115788
116371
116141
114683
111966
108575
105263
102203
99895.9
98379.5
97631.8
113241
113574
114207
115060
115894
116518
116340
114744
112214
108810
105493
102418
100082
98544.1
97784.6
113281
113613
114247
115100
115940
116559
116385
114994
112325
108903
105576
102501
100166
98626.1
97865.9
113298
113626
114252
115088
115935
116530
116349
114937
112241
108834
105453
102437
100137
98622.2
97873.1
113296
113616
114225
115043
115866
116465
116266
114792
112029
108634
105206
102259
100024
98547.8
97817.5
113282
113595
114189
114983
115783
116381
116170
114645
111816
108343
104930
102044
99870.1
98436
97725.7
113266
113571
114151
114925
115705
116285
116060
114479
111614
108096
104682
101844
99720.5
98320.1
97626.6
113250
113551
114121
114881
115644
116208
115972
114351
111458
107914
104506
101699
99606.4
98228.5
97546.4
113241
113539
114105
114857
115613
116168
115922
114285
111377
107822
104418
101623
99545.7
98178.6
97502
111982
112426
113313
114610
116177
117738
118521
116422
111889
106365
101697
98305.4
95987
94542.1
93851
112008
112455
113348
114654
116233
117799
118582
116505
111987
106480
101811
98407.4
96076.7
94623.1
93927.4
112059
112512
113418
114747
116349
117926
118697
116684
112194
106744
102060
98617.5
96256.2
94782.3
94076.2
112130
112593
113521
114883
116516
118105
118742
116943
112396
107174
102470
98944.3
96523
95012.2
94287.9
112216
112693
113650
115055
116743
118279
118262
117007
113586
107861
103052
99392
96865.7
95296.1
94544.5
112307
112799
113795
115274
117025
117695
118403
117340
114134
109570
103791
99916.7
97251.9
95601.9
94816.6
112390
112896
113920
115439
116470
117924
118672
117729
114631
110153
105521
100415
97616
95886.4
95065.6
112455
112969
114006
115543
116586
118116
118944
117975
115031
110597
105922
100726
97871.5
96095.9
95250.2
112497
113009
114042
115579
116646
118183
119029
118207
115232
110790
106125
100832
97967.8
96190.5
95344.6
112514
113016
114033
115544
117348
118124
118986
118164
115139
110696
104768
100700
97901.9
96167.8
95340
112508
112996
113974
115424
117185
118813
118943
117958
114821
108999
104154
100355
97703.5
96047.1
95251.9
112490
112966
113919
115327
117027
118689
119485
117862
113535
108347
103605
99982.4
97462.5
95880.4
95119.1
112469
112935
113865
115235
116895
118520
119439
117563
113211
107838
103157
99665
97240.5
95715.5
94981.4
112451
112910
113825
115170
116801
118406
119321
117359
112952
107520
102873
99447.6
97078.1
95588.9
94872.7
112441
112896
113805
115139
116757
118352
119258
117264
112830
107380
102741
99339.5
96993.6
95521.2
94813.5
110569
111185
112467
114504
117348
120916
124582
121681
113928
104560
98243.6
94422.6
92041.2
90648.5
90012
110595
111214
112502
114551
117409
120989
124645
121749
114043
104702
98378.6
94538.3
92142.8
90740.3
90098.4
110645
111272
112577
114657
117565
121169
124804
121930
114358
105052
98686.6
94781.4
92349
90923
90268.2
110717
111355
112688
114839
117871
121516
122723
122308
116343
105901
99285.8
95190.6
92663.3
91191
90513.1
110805
111459
112838
115061
118166
120212
123000
122682
117027
108901
100163
95764.7
93089.7
91530.5
90815.3
110900
111579
113025
115440
117489
120665
123410
123127
117757
110074
103090
96552.7
93579.2
91910.2
91141.4
110986
111676
113150
114943
117709
121046
122846
123040
118865
111928
104213
98960.7
94033.7
92251
91440.6
111059
111760
113294
115040
117895
121300
123206
123605
119696
112828
105050
99556.6
94477.4
92509.9
91670.3
111103
111799
113280
115089
117953
121385
123349
123904
120073
113251
105348
99795.4
94516.4
92632.9
91776.7
111127
111818
113285
115731
117846
121236
123316
123785
119865
112069
104858
97659.4
94447.7
92609.4
91764.7
111122
111789
113193
115460
118645
120915
123949
124029
118899
111206
101818
97083.6
94148
92429.4
91639.1
111105
111758
113118
115312
118408
122151
123612
123555
118107
107591
100821
96506.2
93795
92198.9
91458.6
111083
111723
113051
115168
118129
121782
125587
123048
115562
106416
100039
96029.8
93487.1
91976.3
91276.4
111065
111696
113006
115088
117995
121605
125416
122723
115138
105933
99626.2
95733.9
93270.1
91809.7
91135.4
111054
111681
112983
115053
117941
121536
125346
122572
114973
105727
99441.2
95590.2
93159.6
91722
91059.5
108314
109052
110650
113395
117763
124655
130180
135101
120668
99020.5
91883.9
88483.4
86544.3
85539.8
85120.1
108336
109077
110681
113438
117826
124728
130224
135159
120738
99154.6
92016.4
88598.2
86650.9
85638.6
85213.6
108380
109127
110744
113520
117963
124918
130349
135315
120926
99427.4
92270.7
88819.1
86867.4
85836.3
85398.6
108444
109203
110849
113709
118504
122931
130656
135680
121402
104631
92921.3
89169.5
87198.8
86131.9
85668.9
108521
109288
110966
113943
117452
123426
131271
133806
123543
106206
97049.5
89797.2
87632.6
86502.8
86007.7
108614
109390
111173
113687
117780
122774
129897
133414
124704
109919
98484
93127.7
88215.5
86924.5
86379.5
108692
109464
111285
113869
118134
123066
129417
134329
126830
112714
101604
94188.6
88745.6
87305.7
86720.2
108764
109533
111372
114066
117601
122773
129871
135364
128786
114722
103043
95072.6
91298.1
87571.8
86978.3
108823
109602
111441
114092
117675
123375
130079
135934
129899
115838
103767
95421.2
89448.7
87779.1
87121
108866
109655
111457
114000
118310
123363
129926
135617
129306
115443
103357
95214.9
89384.5
87773.3
87109.6
108871
109654
111361
114383
117978
124162
130414
135680
127163
112632
100227
91640.9
88967.5
87566.5
86949.2
108867
109643
111319
114213
119045
123631
131597
137056
123677
107535
94984.3
90824.8
88545.5
87281.2
86723
108851
109612
111253
114059
118539
125536
131175
136393
122648
101167
93925.9
90290.4
88161.8
87001.9
86498.2
108837
109590
111215
114000
118429
125372
130958
136074
122024
100624
93471.4
89954.2
87897.9
86799
86327.4
108828
109578
111195
113966
118372
125305
130888
135942
121808
100378
93245.6
89782.3
87764.6
86693.4
86236.4
104992
105702
107293
110212
115212
122151
138806
168496
123205
90229.3
80597.6
79759.3
79347.7
79310.1
79340.4
105008
105718
107311
110232
115243
122180
138826
168513
123174
90275.8
80687
79852.9
79451.6
79410.4
79436.7
105039
105748
107337
110229
115219
122226
138840
168553
123233
90449.1
80774.7
80028.2
79661.6
79609.4
79627.9
105083
105791
107376
110158
114750
122764
138993
168591
123256
90974.3
84798.8
80147.1
79976.2
79908.6
79910.1
105131
105823
107352
110406
114977
122072
136224
168737
125018
96044.7
85512.6
83233.7
80346.8
80292.7
80268.2
105193
105834
107965
110631
114903
122288
135075
164154
131683
100181
89557.6
84294
82896.5
80732.7
80672
105266
105904
108089
110802
115130
122067
135243
164824
135555
104239
93275.6
87384.7
83620.3
81204.9
81055.2
105333
105980
108265
110957
115283
122210
135401
165842
143387
109805
96053.4
88793
84448.5
81540.9
81308.8
105417
106065
108293
111059
115390
122286
135421
166225
148355
112845
97548.1
89530
84779.1
81729.9
81501.7
105478
106133
108318
111010
115389
122280
135321
165446
144520
110773
96822.8
89271.1
84692.8
81673.9
81473.3
105523
106241
107808
110916
115524
122626
135256
164588
137815
106139
93302.9
86292.6
81918.1
81480
81289.8
105549
106277
107902
110715
115266
123258
136497
168995
127365
99883.6
88132.8
82129.6
81496.9
81154.4
81031
105549
106273
107890
110811
115806
122855
139317
168999
125186
92997.6
82707.1
81684.9
81068.1
80842.9
80775.8
105545
106268
107884
110826
115845
122793
139332
169058
124521
92062.5
82323.1
81329.5
80774.4
80618.3
80584.5
105540
106261
107873
110810
115819
122752
139354
169077
124381
91744.7
82096.6
81150.5
80626.9
80500.6
80483.2
100542
100962
101903
103659
106593
113512
121292
119761
27591.1
58186.7
64706.1
68541.7
70962.1
72468.3
73158
100552
100971
101910
103663
106604
113505
121288
119693
26474.9
58149.3
64742.4
68630.8
71069.5
72568.7
73253.8
100570
100979
101912
103657
106578
113469
121260
119655
26423.3
58288.6
64897.3
68902.8
71304.5
72773.9
73447.6
100595
100983
101893
103502
108032
113180
121111
119606
25800.3
58796.8
66845.3
69420.1
71702.5
73094.3
73740.9
100618
100984
101840
104846
107983
113772
121978
119413
26700.9
63207.4
69424.5
71709
72365.9
73564.6
74125.9
100647
101007
103158
104950
108675
114223
121916
118919
28754.3
66541.4
72617.6
73012.3
74431.6
74158.2
74563.3
100731
101099
103319
105083
109153
114381
121840
118027
42808.6
74181
76398.2
75826.3
75208.1
74686.2
74975.1
100821
101190
103439
105883
109360
114542
121671
116134
90531.4
86199.8
80647.3
78427.4
75971.5
75036.3
75242.7
100908
101294
103540
105988
109495
114651
121508
114351
103975
92338.8
82866.2
79434.3
76334
75182.4
75399
100974
101366
103605
105444
109520
114684
121547
114758
85479.5
87122
81655.3
78144
76270.8
75060.6
75332.1
101061
101465
102401
105471
109213
114660
121786
116545
56598.3
77073.3
78294.4
75155.2
73913.8
74720.7
75127.9
101110
101528
102499
104176
108661
113499
121036
118347
35081.6
66970.2
70718.2
71517.5
73249.3
74325.2
74838.2
101122
101552
102526
104315
107242
113873
121481
119270
29320.6
61150.7
66936
70598.3
72704.9
73980.8
74561.8
101125
101561
102531
104311
107257
114085
121703
119737
28432.8
60094.7
66426.8
70112.4
72372.2
73742
74361
101123
101557
102524
104303
107243
114109
121779
119939
28770.3
59857.6
66242.7
69930.4
72215.6
73620.5
74256.9
95242.5
95121.4
94852.5
94443.5
94304.8
98417.1
102370
115996
5077.92
35782.8
50251.8
58037.5
63139.5
66121.7
67464.4
95251.5
95129.1
94860.3
94452.3
94329.5
98410.9
102363
115824
3059.02
35831.8
50284.1
58147.9
63249.8
66218.1
67554.6
95269.6
95142
94878
94517.5
94368.6
98394.1
102344
115803
3271.02
36068.3
50595.1
58473
63501.8
66429.6
67743.2
95302.7
95156.1
94894
94664
97381.5
98481.6
102259
115816
2406.8
36732.3
51154.5
59205
63958.2
66776.2
68037.9
95350.3
95198.1
95018.2
96932.4
97616.4
100629
103602
115988
2359.45
37249.4
52717.5
60685.6
64692.3
67307
68440.4
95414
95349.4
96822.6
97132.5
99220.9
101806
103821
115906
2677.15
40220.6
55055.1
61919.2
66128.7
67910.6
68896.1
95534.2
95500.3
96989
97410.2
100262
102206
104249
116226
15619.4
46684.2
58291.3
63858.7
66937.3
68409.5
69281
95645.6
95623.4
97165.3
98718.7
100635
102745
104861
116556
14993.2
52953.6
61433.7
65597.8
67622.3
68749.8
69526.7
95738.8
95735.6
97308.7
98898.2
100930
103179
105381
116877
2239.83
53196.5
62776.4
66337.8
67896.6
68857.1
69638.4
95787.9
95777.6
97380
97980.5
101008
103232
105392
116828
72190.9
56271.3
62233.6
65743.6
67743.9
68719.8
69550.5
95846.3
95754.7
95732.4
97843.9
100200
102962
104971
116599
18743.8
50309.2
59870.6
63794.1
66085.9
68303.7
69310.9
95863.6
95762
95602
95524.5
98460
99757.6
103553
116650
7629.52
42559.4
54982.8
61019.6
65329.3
67850.9
68995.3
95859.1
95767
95567.8
95295.2
95221.8
99287.5
103094
116401
4336.84
38625.2
52428.5
59971.5
64726.3
67482.7
68716
95854.1
95756.3
95536.7
95187.8
95109.6
99176.5
103055
116395
4282.77
37541.9
51741.3
59454.4
64399
67248.7
68525.5
95849.1
95749.7
95520.4
95159.4
95056.5
99158.1
103048
116421
4370.75
37157.4
51597.8
59271.2
64250.4
67137.5
68430.7
89816.1
89089
87570.3
85120.4
84640
83128.9
85536.6
2176.39
27351.2
42695.7
51708.7
57923.7
61637.5
63364.2
89824.8
89096.1
87576
85127.3
84638.8
83128.7
85535.5
2196.07
27351
42725.1
51813
58008.9
61712.9
63434.3
89849.7
89124.3
87602.2
85175.2
84702.9
83173.2
85534.8
2208.42
27301.5
42999.4
52042.9
58201.5
61885.7
63583.4
89907
89184.8
87658.6
85389.3
85080.8
83230.9
85519.1
2226.02
27727.9
42152.9
52629.8
58545.7
62171
63817.3
90012.7
89314.1
87949.2
87826.8
85869.9
85775.5
86623.4
2247.55
26153.7
42401.3
52791.5
59095
62601
64139.2
90150
89608.8
89737.5
88376.7
87744.8
87335.2
87200.9
2252.7
27909.4
43396.3
53546.2
59503.1
62973.5
64510.9
90309.8
89824.4
89922.1
88864.5
89197.2
88304.7
88442.2
5702.44
30792.4
45135.6
54259
60071.4
63271.8
64782.2
90441.3
89991.8
90177.2
90219.9
90048.7
89711.4
90697.8
2071.68
30929
46045.1
54964.7
60363.3
63491.9
64954.4
90540.3
90106.4
90358.1
90528.5
90649.9
90979.8
93224.1
2272.82
24587.9
45447.4
55123.4
60498.1
63550.2
65027.4
90563.1
90102.6
90428.7
89666.8
90656.1
90927.8
92980
2193.52
20729.7
45032.1
54837.9
60483.5
63490.1
64968.3
90549.9
89932.7
88803.9
89077.8
89275.3
89744.4
90518.3
2306.66
28932
45032.2
54324.5
59939.1
63281.6
64766.8
90495.5
89838
88459.1
86418.4
86560.8
85065.5
87447.9
6814.15
29630.2
44429.5
53774.8
59485.7
62936.6
64520.2
90455.5
89778.4
88354.2
86071.3
85781.3
84370.1
86825.2
2393.42
28737.1
44261
53088.5
59090.9
62665.7
64313.1
90435.2
89742.4
88294
85945.8
85563.9
84124.7
86554.1
2380.73
28366.2
43776.1
52787
58883
62501.4
64180
90426.5
89730.6
88270.5
85902.4
85454.4
84028.5
86466.6
2420.32
28262
43692.1
52651.2
58783.5
62426
64115.2
85214.4
83930.9
81226.1
76463.1
73798.6
65232.8
60067.9
2517.09
2172.26
27053.2
40757.5
49907.2
56117.7
59869.8
61657.9
85213
83924.4
81206.1
76422.5
73760.7
65191.2
60057.5
2296.52
2195.74
26904.1
40711.1
49953.6
56144.1
59902.7
61688.9
85223
83934.1
81187.2
76339.3
73724
65110.8
60036.5
2318.14
2205.86
22979.7
40862.3
50022.9
56221.2
59982.4
61756.6
85265.4
83986.9
81165
76345.7
73720.7
65006.5
60051.3
2342.84
2241.91
23468.3
38177.1
50240.7
56355.2
60117.1
61861.9
85376
84113.3
81275
79629.4
73633.8
68362.7
62314.5
2285.86
2264.83
21591.3
37337.8
48807.9
56576.8
60341
62004.6
85532.8
84314.1
83491.7
79847.9
76167.5
70376.8
63042.3
2306.72
2260.27
22767.5
37393.9
49078.1
55763.7
60446.4
62188.1
85690.2
84518.8
83743.1
80218.1
77774
71665.3
64832.8
2197.01
2667.48
24690
38064.1
48553
55956
60503.6
62280
85825.8
84715.8
84001.2
82079.7
78853.7
74151.2
69698
22664.7
2809.84
24773.8
37598.3
48203.7
55950.7
60552.1
62337.7
85932
84844.3
84197.1
82469.1
79795.5
77123.4
80289.5
1873.84
2289.93
16449.9
36053.9
47902.1
55920.7
60554.7
62366.6
85954.9
84857.6
84269.8
81300.8
79796.9
76790.9
78461.8
2224.39
2234.1
15897.8
35802.4
48076.7
55933.3
60582.5
62367.9
85913.3
84746
82192.8
80997.3
78077.2
73952.8
68758.2
2294.67
2304.42
19883.5
36463.4
48935.8
56785.9
60591.5
62306.6
85836.6
84635.2
81995.3
77451.6
75118.9
66921.4
62445.4
2429.29
4249.31
22890.1
39009.9
50678.4
56769.2
60492.4
62238.6
85801.2
84569.5
81942.7
77264.3
74789.1
66361.7
61486.3
2847.72
2394.19
24449.6
41543.4
50587.6
56717.5
60428.5
62184.3
85789.9
84544.3
81912.5
77249.1
74708.6
66233.9
61248.3
2504.61
2395.32
27879.9
41350.9
50574
56692.5
60395.6
62157.7
85787.9
84542.2
81910.6
77250.6
74667.5
66231.2
61244.4
2626.68
2416.84
27907.5
41401.4
50529.5
56678.7
60380.4
62144.2
82305.2
80622
77027
70622.5
59517.1
48256.9
21077
2285.02
2178.23
30190.3
43263.8
51795.5
57492.3
60899.4
62522.2
82279.6
80585.3
76950.2
70501.5
59323.1
48052.8
21225.5
2286.91
2199.03
29849.4
43114.8
51735.1
57443.7
60876.8
62504.9
82245.7
80540.3
76858.7
70339.9
58995.1
47581.1
21207.4
2283.55
2211.6
24236.3
42939.7
51662.1
57386.3
60841.5
62477.1
82221.2
80525
76735
70208.4
63468
47145.5
21171.8
2273.12
2243.34
24167.2
38612.1
51551
57292.2
60790
62440.3
82258.8
80581
76786.6
72974.2
63477.8
51316.1
27586.1
2278.26
2268.79
20893.8
36724.5
48643.4
57200.8
60769.2
62404
82354.1
80666.5
78664.3
73111.5
66094.5
53723.9
28720.1
2252.64
2261.84
21620.1
35893.6
48423
55225.4
60657.3
62363
82451.8
80775.1
78888.4
73349.3
67727.8
54808.6
29753.2
2299
5820.51
22095.3
35613.4
46781.5
55035.3
60515.5
62275.8
82557.8
80920.9
79130.2
75250
68653.7
57186.6
33495.4
2275.54
2101.2
13915
33739.3
45599.4
54781.7
60415.8
62222.1
82663.5
81042.7
79323.5
75621.2
69567.5
60806.8
57780.4
4476.78
2275.93
2309.98
31991.1
45075.4
54671
60389
62216.1
82718.3
81112.6
79423.8
74260.3
69650.7
59971.4
43827.8
2293.6
2379.11
15770.9
32806.9
45819.1
54788.4
60503.2
62285.4
82717.2
81120.4
77561.1
74248.3
67855.1
56880
32601.4
2284.5
2284.4
18684.2
34090.4
47854.2
56964.9
60680.9
62380.4
82702.6
81070.6
77429.1
71132.4
64813.4
48737.2
24007.9
2252.79
2364.22
21869
38567.5
51491.2
57295.4
60831.3
62505.9
82731.6
81078.7
77514
71144.8
59966.9
48599.7
22206.3
2287.71
2408.65
24840.9
43279.2
51864.3
57537.5
60983
62619.6
82764.6
81112.4
77566
71237.2
60179.5
48879.1
21898.2
2291.58
2404.18
30547.5
43486.4
52057.3
57687.6
61085.5
62701.1
82786.8
81141.6
77620.8
71338.9
60352.2
49166.6
21962.7
2282.74
2427.32
30736.8
43613.2
52132.3
57764.6
61135.7
62742.3
81742.3
80069.4
76469.1
70148
59422.6
45732
9611.86
2289.24
12903.2
39360.6
50123.4
57131.7
61707.3
64384.6
65660.8
81685.5
79996.6
76338.1
69922.9
59138.2
44726.1
9632.31
2274.23
11552.4
38905.8
49777.2
56936.3
61580.5
64308
65598.9
81596.7
79884
76141.8
69590
58960.6
43784.8
10503.6
2289.6
3825.57
30161.3
49505.3
56708.5
61385.9
64173.6
65488.4
81494.1
79770.3
75933.2
69386.5
60654
42715.3
10248.5
2289.46
2236.6
29293.3
43766.2
56329.6
61080.4
63968.3
65329.3
81438.5
79724.5
75906
70715
60222.4
45000.5
20235.6
2292.57
2259.14
24045.5
40620.1
52372.2
60756.3
63757.5
65144.3
81433.8
79712.4
76797.1
70597.1
61676.2
46260.4
20562.8
2293.29
2273.79
24001.1
38725.2
51617.7
57938.3
63494.4
64948.3
81433.4
79700.8
76844.8
70566.8
62517.1
46612.7
22689.7
2267.43
7000.44
23387.8
37655.9
49046.4
57408.6
63208
64737.5
81475.5
79748.2
76951.2
71752.5
62754.2
47150.4
22143.2
2283.18
2191.82
17004.4
35267.7
47219.1
56954.1
63010.6
64606.6
81556.7
79842.2
77069.9
71913.4
62989.3
46777.2
5392.41
2300.86
3937.44
5496.87
33246.9
46548.5
56790.8
62979.1
64583
81648.9
79963.2
77179
71074.5
63192.2
46814.6
14301.6
2259.86
2250.8
16521.3
34332.5
47799.7
57041.4
63147.4
64699
81725.4
80050.1
76349.9
71384
62628.3
47555.1
22432.6
2306.84
2317.89
21004.9
36540.7
50920.8
60225.6
63424.3
64897.2
81807.7
80125.6
76389.7
70014.3
61376
44043.6
19650.2
2272.53
2400.08
25626.3
42946.8
55940.1
60795
63753.4
65151.8
81922.4
80244.2
76589.8
70184.6
59849.4
44410.3
12089.8
2307.93
10640.7
30609.7
49611.6
56633.8
61264.5
64059.5
65382.3
82017.6
80360
76774.2
70492.9
59805.3
45883.4
9870.56
2297.53
14293.4
39778.8
50050.9
57027.2
61567.2
64264.9
65547.2
82074
80432.3
76898
70708.3
60127.9
46681.7
9914.76
2229.69
12241.7
39552
50218
57219.1
61722.7
64370.4
65634.3
83679.7
82525.3
80108.8
76257.5
68752.5
59928.1
39091.6
2364.51
45733.7
58023.4
61870.5
65825.8
68328
69817.8
70562.4
83594.3
82412.5
79911.2
75832.4
67996.7
58181.6
31155.1
2271.27
43354.6
57315
61304.9
65514.6
68135.1
69700.6
70469.9
83453.3
82229.8
79607.2
75155.9
68675
54029.3
23679.3
2298.26
21236.7
45725.6
61066.6
65102.9
67847.5
69504.7
70306.5
83283
82013.3
79225.9
74617.7
66736.8
51763.6
21785.8
2772.01
8452.24
42567
54232.5
64498.6
67369.2
69204.6
70071.3
83140
81830.7
78991.9
73990.6
65388.2
50729
24614.4
2407.06
2263.52
33734.1
50021.5
59840.6
66947.3
68884.5
69801.5
83040.5
81715.8
78646.4
73342.4
64759.2
49602
22902.8
2221.24
6529.39
32162.9
46820.8
58709
63534
68554.3
69528.3
82947
81586.2
78435.1
72935.8
64353.9
48650.7
22271.7
2272.73
12523.7
30549.8
44773.4
55415
62828.6
68197.1
69251.6
82925
81542.6
78368.6
73060.8
63892.7
47974.6
23874.1
2473.98
74606.7
29049.2
41914.4
53069.3
62269.2
67947.6
69075.2
82975.5
81603.3
78421
73062.2
63679.2
46380.1
13464.3
2231.01
2343.62
10661.6
39180.9
52259.6
62074.3
67900.9
69034.6
83093.7
81766.3
78604.9
73138.5
64144.6
47083.4
15533.6
2291.63
2278.06
18937.8
40423.5
53954.5
62370.8
68072.9
69160.4
83234.4
81925.8
79098
73853.8
65191.1
50072.5
24427.6
2286.19
5268.65
28057.1
44065.5
57895.9
66168.9
68359.7
69390.8
83399.4
82142.6
79405.1
74908
66585.7
52493.7
26099.1
2344.39
7113.33
36489.6
52742.8
63776.9
66841.9
68781.4
69699.9
83586.6
82382.3
79816.2
75495.9
69391.6
54225.8
24161.2
3198.93
21761.9
45200.6
60913.2
64748.9
67477.9
69167.9
69987.9
83737.3
82576.2
80124.3
76192.8
68629.9
59150.8
36695.3
2384.59
45809.3
57833.1
61401.7
65369
67890.9
69432.8
70199
83824.3
82690.8
80316.9
76586.2
69347
60489.8
42554.8
2451.49
47755
58456.9
61878.9
65697.1
68108.2
69576.5
70314.2
87518.6
87213.4
86692
87063.9
87972.1
95479.4
139450
147515
104504
83971.5
77934.8
76899.1
76431.6
76430.6
76523.8
87418.5
87072.6
86465
86537.1
87028.9
94126
138931
128136
101244
82700.8
77127.5
76517
76214.6
76297.3
76421.1
87244.8
86831.6
86101.5
85216.5
85850.4
80741.3
98314.8
95542.1
83520.9
73404.7
76018.2
75770
75851.8
76073.1
76239.2
87025.6
86527.1
85518.5
84245.2
80017.1
75879.9
73351.8
34568.1
51591.7
68952.3
70457.8
74856.7
75316.8
75746.3
75980.8
86822.2
86237.7
85077.6
81629.2
78092
69615.1
49635.7
4712.88
26964.4
56580
65567.7
70687
74755
75378.6
75685.7
86667.1
86049
83500.4
80693.3
75098.7
65094.3
41338.6
2264.58
22642.5
51149.9
61124.2
69399.8
71537.2
75010.5
75406.4
86513.7
85847.3
83071.8
80055.2
73405
62237.7
36508.7
2280.13
25989.4
43800
57557.4
65659.4
70777
74660.9
75123.6
86447
85750.7
82890.5
79052.8
72447.9
60183.1
35859.5
16900.5
2258.26
31326
53567
63007.4
70249.1
74417.8
74934
86465.9
85774.4
82897.5
78995.9
72146.7
58722.7
26722.3
2336.69
2381.96
20617.6
51215.2
62259.6
70027
74346.2
74870.2
86581.8
85934.9
83112.2
80104.4
72941.8
60685.5
30758.4
2084.79
2278.05
30395.3
53224.9
64205.9
70223.6
74473.7
74962.4
86741
86135.1
84926
80880.4
75250.8
65525.7
44613.6
4544.98
20453.6
45714.5
58009.7
68373.7
73877.2
74730.5
75157.2
86946.9
86437.3
85414.8
84128.9
79071.6
75346.7
61723
20423.1
45238.1
60343.5
68114.5
73846.3
74561
75144.5
75448.2
87174.5
86758.7
86033.9
85174.4
86014.5
78981.1
91021.4
103046
85809.5
71944.4
75342.1
75103.7
75247.5
75534.2
75736.5
87354.2
87011.4
86401.7
86496.9
87287.1
93579.6
138896
134616
102935
82678.5
76885.4
76051
75716.5
75818
75954.8
87455.2
87153.3
86621.8
86967.4
88120.5
94390.6
137267
149768
105847
83879.5
77721.3
76501.6
75973.6
75976.8
76075.6
92028.7
92485.2
93431
96442.4
102153
106805
129895
132018
114310
99600.5
91449.2
86947.5
84281.9
83108.2
82636.4
91948.8
92371.5
93312.1
96266.9
102084
107407
134865
144647
115875
98938.9
90985.8
86678.6
84103.4
82994.2
82548.9
91794.6
92126.6
93070.8
95099.5
100436
105157
124697
151571
119031
98800.2
89751.3
85938.7
83786.5
82788.3
82388.9
91581.9
91827.1
92472.3
94152.1
95119.9
103444
124665
159672
121899
96796.5
87464.5
84907.3
83296.3
82490.5
82158.1
91374.8
91528.5
91910.1
91134
93045.9
96419.9
111235
189719
115042
90768.7
84225.2
82390
82730.3
82143
81888.8
91217.2
91235.3
89909.2
90106.2
89687.7
90724.4
100285
175955
98769.5
83869.6
80501.6
81289.2
80511.5
81770
81635.7
91052.5
91026.5
89530.7
89428.6
87211
86986.9
84974.3
10197.8
30283.3
71737.9
76921.1
78697.6
79958.1
81475.3
81399.2
90966.9
90913.6
89323.4
87860.3
86205.3
84231.5
75460.6
2209.07
2321.79
58647.6
73658.2
76547.2
79508.9
81272.4
81229.5
90948.9
90891.8
89282.3
87759.3
85938.8
83521.2
72435.5
10116.2
2291.22
56281.2
72477.9
75971.6
79295.5
81174.2
81141.6
91022.2
91006.9
89424.3
89259.7
86590
85859
82400.6
16953.2
11130.4
65985.3
74079.6
77443.2
79368.7
81235.7
81172.6
91137.2
91237.5
91514.8
90011
89192.6
89947.9
100926
151821
80971.5
77546.5
77285.4
80083.7
81805.3
81438.7
81287.9
91320.2
91519.5
92057
93485.8
93487
99575
110488
134276
106626
88692.5
84243.8
83644
82364.6
81755.4
81506.2
91526.9
91823.4
92689.4
94539.5
99564.7
102958
120670
146078
114767
96208.7
88384.6
84891.5
82949
82076.3
81736.8
91679.5
92075.4
92956.5
95698.2
101582
106459
132346
143866
114096
97943
90163.9
85833.6
83361.6
82324.6
81915.1
91758.8
92191.9
93090.3
95872.5
101815
106168
129210
135359
113060
98659.1
90716.6
86175.8
83577.3
82458.2
82013.6
95904.9
96610
97816.1
99909.7
104612
103435
105557
108189
105137
101171
96860.9
92943.1
90195.1
88707.3
87995.4
95890.2
96597.9
97900.3
100277
105437
105327
109292
113817
106702
102001
97237.2
93013.8
90162.2
88664.8
87953.4
95834.2
96483.9
97975.6
100389
104783
107587
112717
122662
111093
103641
97043.8
92901.7
90084.5
88564.6
87869.7
95719.2
96346.9
97748.2
100523
102653
109572
120054
133298
120426
105348
97227.1
92656.6
89896.7
88396.5
87731.4
95580.3
96160.9
97519.4
98371.8
102577
109178
123259
143040
128269
108288
97148.4
91780.3
89621.4
88158.2
87545.5
95443.6
95864.1
95989.6
97913.9
100666
108095
126901
160109
133435
108949
96794.1
91523.1
88538.6
87837.1
87344.2
95316.2
95691
95793.3
97583.8
99487.8
107646
128348
183619
148398
110285
96439.7
90731.7
88254.3
87618.8
87166.1
95223.8
95572.7
95635.9
96353.9
99064.8
107008
128520
207953
171506
112313
96093.9
90019.5
87943.9
87443.1
87022.6
95163.6
95505.5
95547.8
96207.4
98819.8
106638
128009
192062
169418
111576
95430.1
89599.9
87725.3
87313.7
86908.1
95167.1
95533.9
95544.5
97126.3
98762.5
106409
126375
176301
144141
107335
94487.5
89551.3
87629.5
87284.3
86869.1
95217.3
95715
96892.9
97345.4
99570.2
105843
121017
138355
122236
103646
93972.4
89998.2
88593
87407.4
86897
95307.7
95860.6
97088.2
99498.8
101071
107341
116859
131046
118255
102736
94634.3
91205.1
88832
87568.3
86999.1
95402.4
95988
97339.7
99444.3
103427
106309
112912
122158
109701
101333
95253.3
91571.3
89069.2
87724.3
87109.6
95450.3
96101.6
97318.1
99369
104330
103980
106688
110798
103697
100324
95840.2
91854.8
89225.4
87846.4
87193.8
95465.2
96122
97285.8
99069.6
103838
102736
104278
106700
102235
99857.2
95598.3
91846.8
89283.9
87898.3
87237.8
98565.7
99099.5
100039
100557
103380
102517
102558
105934
102330
100556
98237.4
95821.6
93970.2
92767.6
92124
98622.9
99193.8
100224
101102
104253
103862
104099
105430
103115
101748
98899
96125.8
94090
92815.9
92143.6
98696.6
99264.9
100488
101978
104750
106303
109238
113183
108643
103934
99669.7
96580.7
94272.2
92867.2
92168.2
98741.4
99379.6
100690
102944
104827
109007
114241
117908
114453
106730
101158
97083.7
94486.3
92909.6
92174.1
98754.3
99426.4
100908
102103
105727
110458
117521
123486
120093
110907
102789
97432.1
94638.8
92885.9
92136.1
98711.9
99383.1
99865.2
102328
105588
111853