/*--------------------------------*- C++ -*----------------------------------*\
| =========                 |                                                 |
| \\      /  F ield         | OpenFOAM: The Open Source CFD Toolbox           |
|  \\    /   O peration     | Version:  v2012                                 |
|   \\  /    A nd           | Website:  www.openfoam.com                      |
|    \\/     M anipulation  |                                                 |
\*---------------------------------------------------------------------------*/
FoamFile
{
    version     2.0;
    format      ascii;
    class       volScalarField;
    location    "0.04";
    object      p;
}
// * * * * * * * * * * * * * * * * * * * * * * * * * * * * * * * * * * * * * //

dimensions      [1 -1 -2 0 0 0 0];


internalField   nonuniform List<scalar> 
449343
(
104041
104181
104417
104654
104767
104555
103807
102451
100540
98280.6
95963.6
93863.5
92172.4
91000.8
90404
104025
104165
104401
104639
104751
104539
103790
102435
100526
98268.8
95953.1
93852.7
92160.4
90987.6
90390
104011
104152
104389
104626
104738
104524
103774
102421
100516
98263.2
95950.7
93849.9
92155.2
90979.9
90380.9
104000
104142
104380
104617
104728
104508
103758
102405
100506
98260.5
95953.9
93853.2
92154.9
90975.9
90374.9
103990
104133
104372
104609
104718
104492
103740
102388
100495
98259.2
95959.8
93859.3
92156.7
90973.2
90369.6
103981
104124
104364
104601
104708
104477
103723
102374
100488
98258.9
95964.7
93863.9
92156.4
90968.4
90362.4
103970
104114
104354
104591
104696
104462
103706
102356
100475
98254.8
95962.5
93862.6
92150.6
90958.3
90350.2
103956
104101
104341
104578
104681
104446
103685
102334
100453
98237.3
95947.1
93846.9
92133.3
90940
90331.3
103940
104084
104325
104561
104665
104429
103670
102318
100433
98210.2
95917
93816.9
92105.3
90913.6
90305.7
103921
104064
104304
104540
104646
104412
103653
102299
100407
98175.3
95879.1
93776.9
92069.2
90881.2
90275.2
103900
104043
104282
104518
104626
104396
103638
102281
100383
98140.6
95837.2
93734.2
92030.4
90846.5
90242.8
103878
104020
104258
104495
104606
104383
103628
102270
100363
98110.8
95798.7
93694
91993.1
90812.7
90211
103856
103998
104235
104473
104585
104368
103614
102256
100344
98083.9
95764.8
93658.6
91959.8
90781.8
90181.6
103835
103976
104213
104451
104564
104350
103598
102239
100324
98058.9
95735.8
93628.8
91931.2
90754.7
90155.3
103814
103955
104192
104430
104544
104331
103580
102220
100303
98036.4
95711.7
93604.3
91907.2
90731.4
90132.4
103884
104072
104407
104796
105091
105102
104489
103073
100911
98314
95700
93402.3
91601.9
90377.5
89760.1
103868
104056
104392
104782
105076
105086
104472
103057
100898
98304.7
95692
93393
91590.6
90364.5
89746.3
103854
104043
104381
104772
105066
105072
104456
103044
100891
98305.4
95696.2
93394.3
91587.1
90357.4
89737.4
103843
104033
104373
104766
105058
105057
104435
103021
100881
98310.1
95709.6
93404.2
91589.7
90354.4
89731.6
103833
104026
104368
104762
105053
105034
104413
103002
100858
98317.6
95729.8
93419.4
91595.1
90352.8
89726.9
103824
104018
104364
104760
105050
105022
104393
102987
100860
98325.8
95748.2
93433.5
91599.1
90349.2
89719.7
103814
104010
104358
104754
105037
105013
104378
102970
100850
98333.8
95772.1
93444.7
91596
90339.8
89707.5
103801
103997
104345
104743
105025
104997
104353
102895
100819
98313.5
95757.7
93429.2
91578.3
90321.1
89687.9
103785
103980
104328
104724
105007
104980
104342
102933
100804
98284.1
95720.2
93394.2
91548.1
90293.2
89661.4
103765
103960
104305
104701
104988
104957
104322
102908
100772
98235.5
95657.4
93341.8
91507.7
90258.8
89630.1
103744
103937
104280
104673
104963
104940
104312
102892
100740
98192.3
95601.1
93289.1
91464.8
90223.1
89597.4
103722
103913
104254
104646
104939
104934
104308
102887
100737
98157.5
95551.1
93241.8
91425.2
90189
89565.9
103701
103890
104229
104621
104916
104921
104301
102882
100722
98127.4
95510.6
93202.6
91391
90158.6
89537.2
103679
103868
104206
104597
104893
104903
104286
102867
100701
98099.5
95478.2
93171.3
91362.5
90132.1
89511.8
103659
103848
104185
104576
104872
104883
104269
102850
100682
98076.5
95453.4
93146.7
91338.9
90109.3
89489.3
103482
103778
104341
105093
105855
106434
106233
104661
101829
98346.6
95003.4
92257.1
90219.7
88883.1
88223.2
103465
103762
104327
105080
105844
106419
106215
104646
101819
98342.9
95000.5
92250.7
90209.4
88870.4
88209.4
103451
103750
104318
105075
105841
106410
106196
104635
101818
98360.6
95020.4
92259.8
90208.9
88864.3
88200.9
103440
103741
104315
105078
105846
106399
106156
104616
101793
98385.7
95064.3
92285.8
90216.9
88863
88195.5
103431
103736
104316
105086
105851
106362
106078
104529
101737
98434.4
95120.5
92321
90230.1
88863.4
88191.3
103423
103732
104321
105096
105870
106342
106043
104521
101753
98478.5
95192.1
92358.8
90241.1
88861.5
88183.8
103413
103725
104318
105106
105857
106345
106026
104505
101749
98497.7
95314.4
92392.5
90246.1
88852.8
88170.4
103400
103714
104309
105099
105853
106344
106030
104472
101714
98475.6
95295.5
92376.1
90227.3
88832.8
88149.3
103384
103697
104291
105077
105828
106312
105988
104458
101689
98438.6
95249.7
92333.3
90192
88801.5
88120.5
103365
103675
104265
105040
105811
106279
105970
104433
101646
98371
95080.1
92251.9
90139.3
88763.5
88087.8
103344
103650
104232
105002
105768
106272
105978
104411
101601
98294.2
94975.4
92176.7
90089.6
88725.9
88055.1
103322
103625
104200
104964
105734
106286
106040
104488
101646
98226.7
94896.9
92115.2
90045.8
88692.1
88024.9
103301
103601
104172
104931
105700
106271
106053
104484
101657
98186.4
94835.6
92067.2
90011
88663.2
87998.1
103281
103579
104147
104903
105671
106249
106044
104471
101636
98150
94795.5
92034
89983.7
88638.7
87974.6
103261
103559
104125
104880
105647
106229
106030
104457
101619
98126.9
94770.4
92010.1
89961.4
88617.3
87953.5
102706
103160
104066
105402
107033
108660
109645
107775
103464
98124.5
93545.1
90175.9
87859.1
86410.8
85717
102688
103143
104052
105391
107025
108650
109618
107759
103452
98125.2
93546.5
90170.4
87848.6
86397.8
85702.9
102672
103130
104045
105394
107036
108655
109602
107767
103488
98184.6
93588.3
90185.9
87849
86391.7
85694
102658
103121
104047
105415
107064
108691
109422
107774
103416
98322
93695.5
90228.1
87860.1
86390.6
85688.4
102647
103116
104057
105439
107107
108627
108649
107465
104189
98510.4
93834.6
90295.3
87877.5
86390.3
85682.4
102638
103116
104082
105511
107190
107852
108525
107445
104259
99768.6
94027
90371.5
87896.4
86385.3
85671.7
102626
103111
104089
105535
106531
107883
108489
107413
104244
99807.2
95289.8
90406.7
87895.7
86372.5
85654
102614
103104
104090
105536
106523
107897
108507
107306
104219
99795.2
95248.6
90386.2
87880.5
86351.4
85628.1
102599
103085
104065
105510
106503
107867
108462
107347
104181
99744.3
95209.8
90335.3
87830.4
86312.3
85597.1
102582
103061
104028
105458
107137
107805
108437
107337
104133
99672.9
93862.1
90231.2
87772
86271.9
85563.7
102563
103034
103978
105362
107029
108551
108551
107346
104097
98343.8
93653.1
90123.7
87717
86237.6
85533.5
102544
103009
103939
105310
106962
108597
109318
107648
103251
98141.5
93506.7
90040.5
87675.6
86208.3
85507.3
102527
102987
103907
105261
106907
108537
109483
107636
103340
98016.2
93403.4
89989.9
87646.1
86184.6
85485.1
102509
102966
103880
105225
106865
108502
109472
107610
103293
97955.6
93356.9
89961.3
87625.1
86165.1
85465.7
102490
102947
103858
105200
106838
108480
109470
107604
103291
97940.4
93337.7
89943.2
87607.5
86146.9
85447.1
101357
101983
103284
105355
108260
111898
115827
113214
105936
96904.8
90622.8
86753.1
84321.2
82889.6
82232.9
101336
101963
103267
105345
108256
111896
115796
113196
105926
96909.5
90621.6
86741.5
84306.5
82874.6
82217.7
101314
101945
103257
105350
108287
111934
115788
113198
105999
96987.3
90668.3
86748
84300.6
82865.2
82206.8
101293
101930
103260
105409
108444
112110
113464
113281
107605
97526.7
90897.3
86803.4
84305.7
82860.5
82198.6
101271
101914
103271
105459
108529
110599
113432
113232
107757
99853.4
91142
86869.9
84313.1
82850.8
82186.7
101256
101918
103325
105671
107670
110788
113465
113148
107775
100149
93386.1
86998.5
84305.6
82838.9
82168.1
101235
101896
103307
105058
107723
110891
112535
112471
108112
101181
93609.7
88832.4
84234.5
82794.7
82136.7
101225
101895
103370
105061
107762
110920
112553
112443
108126
101207
93667.1
88870
84308.4
82760.9
82108.2
101210
101873
103289
105035
107737
110896
112510
112409
108035
101120
93562.8
88797.2
84148.9
82721.7
82069.6
101202
101864
103274
105625
107627
110773
112535
112367
107937
100023
93287.5
86805.4
84142
82701.7
82041.9
101191
101837
103199
105396
108470
110596
113338
112998
107489
99759.1
90878.2
86645.3
84120.2
82675.5
82019
101183
101823
103160
105318
108364
112036
113353
113163
107569
97293
90667.5
86587.6
84099.8
82660.8
82001.9
101173
101808
103128
105232
108181
111837
115716
113119
105872
96831.8
90485.2
86548.4
84090.5
82649.3
81988.3
101162
101793
103106
105194
108118
111773
115691
113082
105821
96787.7
90459
86544.7
84086.3
82639.8
81976.1
101147
101777
103086
105169
108088
111743
115692
113082
105831
96798.5
90462.3
86544
84079.7
82628
81961.8
99185.6
99934.7
101553
104327
108745
115703
121381
126879
113429
92412.8
85046.9
81448.2
79355.4
78250.2
77782.2
99159
99908.7
101529
104310
108742
115700
121356
126830
113353
92347.8
85010.9
81413.7
79330.6
78231.3
77765.3
99124.7
99876
101501
104286
108741
115723
121321
126779
113283
92302.8
84966.5
81365.9
79305.5
78214.6
77751.4
99088.6
99847.5
101491
104335
109110
113542
121392
126862
113309
96836.1
85139
81305.6
79286
78203.7
77739.7
99042.2
99797.2
101447
104388
107883
113806
121678
124462
114741
97726.3
88509
81270.8
79204.1
78168
77718.8
99010.3
99762.1
101494
103979
107993
112882
119913
123459
114933
100188
88806.5
83733
79119.1
78107.5
77685.6
98969.9
99711.4
101476
104017
108142
112922
119021
123486
115535
101299
90595.9
83815.5
79007.7
78025.8
77635.5
98946.9
99675.2
101481
104072
107497
112429
119054
123479
115517
101315
90573.4
83791.2
80917.8
77947.4
77593.7
98944.8
99686.7
101454
104033
107484
112901
119043
123415
115342
101116
90419.4
83649.3
78876.4
77932.5
77553.8
98956.9
99711.6
101451
103931
108092
112917
118980
123361
115170
100833
90258
83543.2
78901.2
77939.9
77535.5
98963.8
99723.5
101383
104340
107853
113864
119794
124291
114532
99525.7
88309
80958.3
78960.5
77960.3
77526.3
98980.5
99744.3
101399
104261
109067
113546
121405
126820
113150
96773
84856.4
81048.3
79050.3
77980.7
77522.9
98987.8
99744.7
101381
104185
108666
115678
121285
126726
113193
92177.1
84794
81162.8
79086.1
77987.1
77520.2
98988.6
99744.6
101378
104177
108632
115614
121266
126760
113294
92325.2
84891.6
81236.4
79115.1
77993.4
77517.4
98979.7
99734.9
101366
104158
108599
115581
121275
126814
113434
92487
84968.8
81279
79129.2
77991.1
77508.7
95971.1
96695.1
98311.5
101253
106262
113141
129692
159772
117902
85052.1
74832
73514.6
72786.5
72563
72507.6
95936.1
96659.3
98274.2
101213
106226
113106
129633
159680
117432
84761.6
74702.2
73435.3
72749.3
72541
72490.5
95883.5
96599.3
98203.1
101116
106088
113053
129490
159533
117174
84597
74538.8
73338.3
72704.4
72517.9
72476.7
95818.8
96530.1
98126.3
100883
105461
113382
129427
159284
116993
84749.7
77965
73074.6
72657.1
72495.4
72466.9
95731.1
96415
97912.1
100943
105460
112471
126437
159006
118250
88943.4
77891.2
75343.6
72471.1
72449
72443.4
95647.5
96257.8
98379.2
100985
105196
112420
124994
153965
123403
91363.2
80384.2
75327.5
74202.4
72343.5
72403.6
95590.8
96194.3
98360.2
100968
105209
111999
124907
153974
124173
92002.8
81879.1
76970.8
74148.2
72308.5
72363
95544.4
96149.4
98404.4
100981
105204
111982
124917
154101
124432
92223.5
81907.8
76922.7
74110.1
72265.8
72294.7
95565.7
96170.2
98347.6
100993
105225
112000
124966
154119
123442
91487
81576.6
76754
73973.2
72200.1
72266.1
95592.2
96205.1
98345.3
100927
105222
112038
125044
154138
122736
90705.2
81148.5
76543.4
73905.8
72146.3
72228.4
95650.6
96341.1
97853.2
100893
105442
112517
125176
154248
122505
90332.1
79718.7
74893.4
72168
72203.4
72222.5
95710.9
96429
98039.2
100823
105315
113322
126614
159313
116970
88552.1
77516.9
72766.7
72388.3
72247.8
72227.2
95746.3
96470
98090.3
101028
106038
113034
129535
159496
117097
84492.5
74383.4
73128.5
72472
72274.2
72229
95766.8
96498.3
98130.2
101095
106143
113060
129587
159621
117304
84762.5
74638
73279.2
72535.9
72296.6
72233.4
95766.3
96498.7
98132
101099
106140
113039
129618
159698
117857
85280.6
74869.8
73391.1
72574
72303.6
72228.3
91651
92093.2
93076.7
94878.2
97831.3
104578
112012
109566
32294.8
55576.7
60180.8
63135.9
65051.3
66279.6
66844.5
91608.6
92047.9
93026.4
94816.1
97773.2
104513
111953
109455
24975.1
54758
59891
63025
65014.4
66259.7
66831.7
91539.2
91965.5
92931.7
94723.4
97629.9
104372
111802
109286
24340.4
54428.2
59793.3
63004.9
65004
66256.6
66833.7
91447.3
91844.2
92783.9
94408.2
98891.1
103903
111458
108962
24825.7
54692.4
61237.6
63162.3
65038
66267.6
66851.9
91323
91684.9
92535.8
95529.8
98608.7
104266
112124
108462
28152.8
58563.2
63088.3
64593.4
65193.5
66319.1
66873.6
91184.9
91525
93659.7
95387.4
99057.5
104467
111834
107887
31492.3
59643.1
64470.3
64872.2
66339
66394.4
66878.4
91122.4
91452.2
93614.8
95287.1
99286.8
104378
111702
107657
36797.1
61611.1
65202.5
66026.4
66346.2
66431.8
66883.6
91084
91402.2
93562.6
95914
99267.8
104351
111711
107808
48795.4
63104.7
65510.1
66575.3
66361.6
66413
66833.3
91090.9
91422.1
93551.5
95897.1
99267.8
104375
111804
108147
30146.5
60735
64886.7
66329.5
66202
66309.9
66780.1
91123.6
91466.7
93591.5
95277.4
99279.7
104441
111945
108512
25677.6
58689.7
64012.6
65459.8
66023.7
66181.1
66691
91235.3
91603.2
92466.9
95404.5
99073.1
104543
112127
108818
24678.7
57855
63365.4
64158.3
64858.3
66048.1
66630.2
91332.7
91737.7
92695
94349.2
98764.6
103636
111312
109211
24953
55957.7
60713.4
62804.4
64739.5
65997.7
66592.7
91396.1
91832.5
92819.7
94641.5
97591.4
104154
111704
109353
25305.8
54253
59569.1
62772.2
64753.9
65996
66569
91434.5
91884.4
92884.7
94708.5
97708.5
104435
111894
109455
24799.2
54758.4
59907.1
62886.1
64796.5
66003.4
66558.9
91441.6
91894.9
92900.9
94735.3
97728.1
104484
111943
109454
26448.5
56110.3
60370.8
63060.3
64847.1
66011.6
66551.6
86495.1
86412.9
86226.2
85946.6
85943.5
90042.1
93823
107046
24323.3
34400.7
46497.5
53257.4
57758
60411.7
61609.1
86450.8
86365.4
86175.8
85891.2
85903.7
89979.1
93762
106838
2869.53
33612.1
46208.4
53185.9
57734.7
60402.9
61607.1
86380.8
86286.8
86091.9
85843.2
85833.5
89847.9
93627.9
106707
2488.9
33412.2
46265.1
53256.1
57784
60440.3
61638.2
86291.8
86170.5
85978.8
85877.4
88583.2
89753.4
93364.7
106525
3928.08
33755.5
46554.4
53616.2
57922.8
60528.8
61709.2
86181.4
86038.7
85899.7
87838.6
88578.3
91554
94374.1
106444
6145.05
34049.8
47457.5
54521.3
58201.7
60691.9
61812.5
86064.3
85988.5
87463.9
87731.8
89790.8
92311.8
94214.2
106001
4000.78
34523
48216.7
54765.7
58941.7
60840.1
61894.7
86014.8
85947.6
87342
87675.2
90399.4
92205
94121.3
105862
44585.1
37037
49034.8
55375.3
59016.7
60900.6
61934.7
85979.2
85904.4
87271.9
88639.7
90332.7
92148.6
94082.7
105814
58138.9
40324
49585.1
55670.3
59001.5
60887.3
61899.8
85976.7
85909.5
87254
88615.1
90319.2
92140.7
94095.1
105928
2756.19
36950.8
48912.7
55435.7
58865.8
60772.5
61830.1
85990.5
85914.8
87289.9
87658.3
90351.2
92193.5
94166.5
106040
2306.31
34201.3
47888.1
54814.7
58691
60619.5
61707.8
86078.4
85940.5
85806.8
87679.9
89784.2
92324.6
94296.3
106179
2318.09
33284.4
47225.9
54060.4
57858.3
60421.6
61561.9
86162
86049.5
85875.5
85796.1
88564
89884.4
93571.8
106622
3465.25
33018
46307.2
53237.4
57607.8
60245.4
61435.4
86223.1
86141
85971.6
85763.5
85792.8
89795.7
93541.3
106641
4855
33156
45978.6
52989.9
57508.8
60160
61354.8
86263.1
86191
86028.2
85784.4
85845.8
89911.5
93715.3
106786
2716.55
33536.9
46119.7
53002.5
57489.9
60122.4
61311.6
86272.6
86204.6
86046.7
85810.4
85857.4
89985.2
93794.1
106855
7893.67
34411.8
46541.8
53145.7
57523.4
60118.5
61292.2
81204.1
80536.4
79151.1
76954.2
76612.1
75547.9
78121.2
11250.6
26132.9
39040.2
47136.5
52813
56235.5
57834
81161.7
80491.6
79105.3
76910.9
76557.9
75489.3
78062.1
2298.43
25433.9
38852.2
47103.6
52799.6
56236.9
57841.5
81101.6
80431.2
79034.7
76845.3
76534.4
75433.5
77950.6
2298.54
25086.2
38973.6
47179
52867.6
56297.5
57892.8
81040
80365.2
78962.2
76972.4
76794.4
75337.7
77763.5
2306.11
25238.9
38018
47496.4
53018
56418.7
57991.9
80982
80307.9
79053.7
78985
77343.2
77440.5
78469.5
2287.83
23084.1
37654.2
47252.6
53286.2
56624.2
58133.3
80924.7
80380.9
80490.7
79224.6
78702.2
78430.3
78499
2271.57
22515.3
37582
47411.3
53206.3
56721.9
58251
80894
80368.2
80398.7
79276
79465.4
78460.1
78556.7
2297.86
23049.2
38022.5
47369.4
53317
56758.5
58292
80857.1
80334.3
80345.3
80118.9
79499.4
78396.2
78441.4
2150.48
24983.1
38457.3
47388.3
53298.3
56747
58261.6
80846
80319
80317
80098.2
79455.3
78313.8
78301.1
2278.42
24846.4
38213.7
47252.4
53210.2
56649.1
58191.9
80831.4
80285
80340.1
79195.4
79352.2
78279.3
78263.6
2298.28
23308
37583.7
47045.8
53067.8
56524.6
58070.6
80854.5
80185
78931.1
78848.5
78538.3
78271
78307.5
2290.27
22703.8
37126.3
46958.8
52989.1
56367.4
57887.9
80884.3
80218.9
78837.9
76873.1
76770.1
75449.3
77509.2
2287.5
23331.6
37776.1
47186.7
52721.2
56134.9
57708.7
80918
80261.4
78894.7
76760.3
76469.3
75395.1
77895.7
2297.58
24744.9
38665.8
46888.4
52569.2
55998.2
57588.8
80948.5
80294.9
78942.7
76804.2
76515.6
75496.5
78086.8
2293.27
24968.4
38563.4
46822.6
52498.9
55919.7
57514.4
80956.5
80306.9
78959.6
76826
76498.3
75549.7
78187.8
2295.88
24978.4
38645.8
46835.2
52488.5
55892.7
57478.4
76696
75482.1
72938.9
68513
66200.2
58632
54377.3
3934.15
2295.27
25259.4
36602.5
45160.5
51004.4
54579.6
56294
76649.9
75431.5
72879.7
68439.8
66121.9
58540.3
54284.2
2308.11
2298.83
24150.9
36433.6
45113.3
50984.2
54583.9
56304.3
76584.8
75364.6
72785.8
68297.2
66014.5
58393.1
54148.6
2631.77
2296.28
20516.4
36658.6
45164.3
51047.8
54643.7
56357.7
76522.9
75305.7
72652.5
68197.7
65904.3
58214.6
54072.8
2377
2302.66
21062.6
34207.2
45283.4
51152.8
54750.8
56450.1
76480.1
75248.5
72561.8
71135.8
65693.4
61123.4
56015.6
3192.86
2310.79
18624.7
32935.3
43716.7
51276.4
54915.8
56570.9
76439.7
75223.9
74449
70980.4
67633.9
62569.5
56472.6
2826.42
2249.53
17962.3
32247.8
43732.5
50275.4
54989.3
56679.9
76397.7
75175.8
74391.8
70828.7
68453.7
62681.2
57281.4
2277.83
2287.9
17378.2
32282.1
42978.5
50348.9
55011.2
56713.2
76350.2
75133.7
74323.7
72130.6
68366
62504.1
56572.2
2273.08
2305.06
17623.1
32429.8
42658.3
50356.4
55002.4
56691.1
76334.7
75109.8
74298.1
72104.6
68285.3
62294.6
56060.3
2360.28
2514.81
18695.6
32528.3
42634.8
50310.9
54929
56624.7
76319.7
75100.6
74325.1
70738.1
68285.5
62225.1
55951.3
2310.07
2357.47
18717.9
32413.2
42911.5
50208.2
54826.4
56514.3
76317.3
75089.2
72406.4
70945.3
67465.6
62255.2
55968.1
2307.54
2298.64
18478.7
32245.8
43549.3
51058.2
54696.9
56333.8
76328.1
75120.4
72492.5
68083.5
65724.1
58173.1
54122.2
2376.75
2300.81
19283.3
33972.5
45038.7
50873.3
54461.2
56159.8
76360
75156.1
72611.1
68188.5
65865.6
58362.2
54231.5
2388.01
2297.48
20358.1
36395.9
44870
50734.9
54322.5
56029.1
76394.5
75196.7
72688.9
68327
66042.1
58585.5
54480
2465.97
2296.7
23605.5
36194.3
44797.4
50646.3
54229.4
55940.5
76406.3
75215.1
72721
68382.2
66114.9
58726.9
54646.5
2358.66
2297.12
24028.4
36226.8
44761.5
50613.7
54185.9
55893
73808.6
72166.1
68683.2
62549
52016.2
42339.8
17727.3
2317.81
2294.99
27054.9
37656.2
46429.7
52114.5
55557.2
57201.4
73748
72096.3
68586.5
62414.7
51823.1
42140.2
17722.4
2256.98
2304.6
25750.9
37829.3
46406.4
52107.3
55567.4
57214.7
73656.4
71995.7
68445.5
62232
51550.2
41663.5
17541.1
2251.11
2301.13
20958.4
37947.5
46488.7
52174.9
55626.1
57269.7
73555.2
71900
68257.3
62022.1
55971.7
41215.3
17526.1
2262.23
2307.42
20945.8
34173.1
46507.2
52242.9
55713.4
57354.1
73472.6
71812.6
68135.5
64591
55859.9
45049.7
23976.3
2282.7
2298.17
17800.9
32338.4
43814.8
52306.3
55845
57457.1
73404.8
71718.4
69786.6
64484.7
58060.3
47044.2
25269.2
2273.78
2289.11
17301.5
31244.1
43720.9
50448.9
55935.5
57563.1
73329.6
71622.7
69756.2
64326.9
58988.2
47212.3
28679.7
2309.97
2292.63
16545.8
31076.7
42377.3
50475.5
55966.8
57601.7
73265.6
71560.8
69686.6
65681.2
58810
46917.6
25371.9
2275.46
2246.45
16449.7
31091.1
41767.3
50498.6
55961
57588.2
73247
71536.5
69651.8
65638
58717.2
46676.3
24789.1
2289.32
2277.08
17159.6
31275.2
41808.7
50481.1
55892.5
57512.3
73248.5
71558.7
69671.5
64224.9
58778.2
46639.2
24815.2
2232.34
2294.28
17599.8
31391.9
42465.4
50406.2
55787.9
57404.7
73261.1
71602.2
67930.6
64443.7
57862.4
46721.2
24914.5
2285.72
2289.75
17579.8
31409.8
43686.7
52098
55608.9
57206.2
73303.7
71658.3
68042.2
61862.1
55828.2
41330.3
19549
2279.78
2270.25
18764.6
34056.6
46272.6
51951.9
55404.5
57037.6
73369.3
71726.8
68214.3
62073.3
51512.5
41565.7
17900.2
2277.48
2303.47
20777.1
37758.8
46206
51844.9
55272.9
56904.2
73427.8
71799.1
68339.1
62257.3
51809.6
42015.2
18052.4
2270.76
2301.75
25441.6
37828.9
46140
51765
55181
56810.5
73452.8
71835.8
68407.4
62371.8
51993
42344.9
18346.1
2281.69
2301.65
26185.1
37824.2
46129.7
51737.8
55133.3
56758
73203.6
71482
67803.2
61530
50564.6
39311.5
5236.17
2302.31
2306.6
31337.3
42477.5
50899.9
55932.7
58927.5
60342.8
73122.4
71385.1
67656.8
61275.3
50279.9
38628
4450.18
2263.8
2373.11
31529.1
42877.3
50873
55948.4
58949.2
60364.8
72997.8
71242.3
67448.5
60935.7
50439.6
36962.9
6708.68
2266.47
2303.13
24272.6
43150.6
50994.8
56023.2
59023
60435.2
72854.1
71098.4
67239.3
60686.4
52526.3
35830.2
8025.15
2280.27
2299.24
24280.9
38286.7
51059.7
56110.6
59124.9
60537.7
72729
70979.9
67134
62106.8
52104.5
38374
16982.2
2292.47
2295.77
20075.5
35729.1
47550.8
56239.9
59281.8
60662.6
72626.9
70875.9
67962.9
61885.3
53488.5
39447.4
17020.7
2293.97
2299.72
19468.1
34190.9
47438.6
53757.7
59453.1
60797
72520.6
70746.6
67875.4
61708.8
54038.3
39213.6
15882.4
2299.26
2260.88
18386.1
33876
45630.6
53797.7
59529.2
60859.6
72441.8
70661.3
67802.7
62624.5
53833.3
39059.1
16674.6
2252.59
2267.45
17982.2
33903.9
44815.7
53854
59530.6
60852.9
72412.9
70633.9
67763
62573.8
53766.5
39002.6
16742.8
2273.24
2311.79
18809.6
34239.1
44917.8
53845
59441.1
60758.8
72423
70667.4
67763.5
61614.9
53872.3
39065.6
16753.8
2250.3
2316.16
19537.7
34440.7
45818.2
53727.4
59264.5
60596.6
72451.5
70701.7
66862.4
61845.3
53326.2
39301.9
16924.4
2262.65
2298.93
19682.2
34499.3
47444.9
55960.2
58983.1
60358.1
72522.8
70776.3
66942.2
60458.1
52175.7
36207.3
15614.9
2312.15
2281.49
21439.9
38082.9
50743.7
55742.5
58747.4
60156.9
72621.5
70882.6
67125.9
60683.5
50297.5
36382.9
7320.71
2296.46
2304.8
24320.9
42966.1
50667.1
55631
58602.5
60003.4
72708.1
70992.4
67314.1
61009.7
50303.7
38122.1
4950.44
2271.6
2619.43
31699.9
42979.7
50589.1
55567.9
58505.9
59898.8
72751.4
71054.1
67430.4
61245
50585.6
38901.7
5989.5
2296.17
2725.86
32008.1
42967.2
50630.1
55552.6
58458
59842.6
75143
73818.8
71003.5
66545.6
57231.5
47191.5
9472.75
2318.21
26872
47027.8
52835.4
58872.2
62273
64331.3
65318.5
75042
73689.6
70795.1
66113
56420.2
46041.5
2992.58
2320.89
27130.5
47161.7
52914.1
58793.2
62294.1
64362.2
65352.3
74888.6
73502.8
70521.1
65471.5
57821.1
43073.2
12355.2
2346.97
2329.85
36009.2
53237.4
58823.7
62365.8
64462.1
65448
74711.1
73290.5
70187.3
64991.4
56795.1
41364
13387
2332.13
2300.79
34197.1
47366.3
58963.7
62494.9
64611.9
65592.5
74551.4
73109
69972.8
64723.7
55648.8
41324.9
18665.8
2305.73
2302.42
27258.4
44132.7
55051.2
62805.5
64845.5
65775.9
74417.5
72985.3
69767.7
64177.6
55556.7
41040.1
17755.6
2298
2299.41
25903.4
41991.8
55127.3
60038.9
65162.7
65980.2
74281.5
72821.3
69520.7
63873.2
55439.5
40406.4
16055.4
2284.56
2290.01
23053.1
41533.7
53083.7
60194
65309.6
66082.1
74183.9
72709.3
69397.6
64051.9
55128.4
40172.2
17066.2
2286.9
2364.08
21129.6
42135.3
52283.8
60366.4
65324.2
66079
74137.7
72666.4
69346.3
63976.8
55028.5
40080.5
17206
2284.13
2300.13
26133.8
43039.4
52467.4
60298.5
65175.2
65945
74147.1
72702
69372
63759.5
55216
40289.4
17257.4
2277.62
2306.41
26664.6
42884.9
53321.7
59995.2
64890.2
65710.5
74183.7
72733.4
69592.3
64119.4
55405.6
40985
17703.4
2270.24
2297.54
26700.4
42541
54935.5
62360
64431.5
65377.4
74273
72855.9
69768.3
64638.1
55952.1
41088.2
17544.4
2302.9
2302.36
29486.2
46903.5
58409.8
61963.9
64111.7
65107.5
74394.6
73018.6
70065.8
65085
57556.7
42335.1
12909.1
2312.28
5662.77
34928.8
52855.1
58318.6
61830.3
63923.4
64912.2
74504.1
73168
70319.7
65680.6
56410.3
45831.8
4075.87
2315.65
28040.2
47305.3
52743.6
58336.4
61780.6
63806.1
64785.5
74564.5
73259.8
70497.3
66105.2
57244.7
47319.7
12615.7
2326.69
30609.6
47998.8
52994.1
58462.2
61778.2
63755.8
64721.7
79178.9
78615.6
77464
76845.4
74818.7
81279.2
116477
93572.4
79111.9
71352.5
68256.9
69777.6
70460.7
71143.2
71529.1
79066.3
78454.8
77195.5
76214.6
73475
78816.3
110786
73784.3
76893.7
70570.2
67931.9
69638.2
70470.9
71181.7
71576.1
78896.6
78220.9
76855.3
74768.2
72777
64158.6
58996.5
30735
47367.8
58992.8
67772.2
69391.1
70540.2
71309.2
71700.6
78698.5
77954
76374.1
74015.9
67665.6
58843.4
38978.1
2299.65
24385.3
55972.3
62422.7
69510.6
70720.1
71520.6
71896.2
78517.4
77714.6
76049.9
71745.8
66165.2
55003
31237.9
2272.99
12280.5
45460.8
58899.3
66239.8
71165.9
71837.2
72149.2
78368.2
77571.2
74621.7
71008.4
64397.3
52544.3
27470.1
2302.35
9561.17
42525.3
56666.1
66786.1
68873.8
72206
72432.6
78210
77384.9
74258.3
70636.5
63473.1
51642.2
27074.3
2304.45
8474.05
35620.9
56749.2
65081.2
69248.3
72407.6
72573.6
78090.5
77246.1
74084.4
69890.3
62966.8
51029.5
27823.5
2169.74
2298.29
52926.5
59305.1
64555.3
69510.1
72421.7
72567.6
78017.1
77168
73997.3
69758.5
62691.9
50214.6
25599.4
2301.62
2637.72
53461.9
60884.2
64709.5
69299.3
72196.4
72379.8
78009.5
77181.3
74029.6
70366.5
62937.7
50547.7
25716.5
2294.92
9762.76
46446.8
58860.8
64950.9
68702.9
71801.3
72064.6
78033.1
77204
75485.3
70759.2
64109.5
52428.1
28420.3
2269.26
9857.03
43973.5
56836.8
65780.2
70451.2
71260.3
71626.7
78125.4
77370
75779.1
73445.8
66462.7
58094.3
33999.8
2306.96
11004.4
48195.5
61100.4
68555.9
69938.3
70852.2
71278.8
78256.5
77576.2
76215.5
74185.1
72354.8
61303.9
48361.2
32828.4
43969.7
56992
66808.8
68551.4
69779
70608.7
71033
78376.4
77765.5
76534
75526.7
73123.2
78738
109851
80775.8
77433.3
70127.1
67253.2
68881.5
69736.6
70465.8
70877.7
78445.3
77885.5
76764.6
76142.1
74424.6
81160.3
115488
101531
81195.2
71323.7
67803.8
69090.4
69744.6
70409.8
70801.9
84238.9
84471.7
84855.2
87328.3
91188.4
95529.9
122272
119938
103343
89779.1
83009.2
80603.1
78884
78319.2
78114.2
84144.5
84328.3
84661.5
86946.6
90559.7
95500.6
125116
130652
107372
89775.5
82943
80593.4
78940.9
78384.1
78183.3
83999.2
84079.4
84414.4
85390
88776.7
90794.7
113072
140485
110558
88261.4
82532.6
80362
79090.9
78549
78345.5
83825
83833.3
83941.5
84597.3
83029
87447.7
103833
132062
106123
86552.6
80460.7
80352.6
79342.5
78818.6
78593.2
83659.2
83595.4
83528.6
81449.8
81341.9
79715.6
80208
106392
85824.4
79378
78750.4
79054.8
79807.8
79187.5
78902.6
83525.1
83373.6
81497.4
80728.1
78264.3
75123
68526.4
35244.8
73162.4
78123.9
78626.9
79944.6
78825.7
79539.2
79222.7
83366.6
83177.7
81170.4
80304.3
76509
73716.7
68598.5
84270.5
52739.5
78577.3
81518.3
80004.4
79352.9
79747.8
79389.3
83230.3
83023.4
80966.2
78739.9
75903
72236.6
66107.1
43153.2
33156.5
79596.8
85527.8
80531.4
79474.3
79741.4
79376
83116.4
82894.8
80823.7
78538.9
75428.9
70554.3
57805.6
2619.01
70652.2
103035
86800.9
80176
79079.9
79439.3
79129.6
83063.1
82862.7
80793.1
79795.2
75536.2
71054.7
56862.8
2344.91
65411
83772
80470.9
78503.9
78273.8
78982.6
78748.9
83038.8
82923.8
82736.7
80178.2
77503.2
74193.2
70803.2
66093.5
67985.3
73041.7
75550.1
77676.7
78803.5
78443.3
78255.7
83096.9
83067.1
83104.2
83648.6
81445
84720
91244.5
131649
84741.2
78050.2
77801.7
78949.5
78293.5
77982.5
77848.8
83195.7
83245.6
83524.8
84437.3
87749.6
89075.4
109998
134396
105439
85363.4
80833.3
79088.5
78075
77686.7
77552.9
83287.2
83442.8
83752.9
85893.2
89457.1
94428
122508
126543
104454
88159
81643.7
79479.9
77970.1
77512.8
77360.6
83335.8
83542.7
83900.5
86241.7
89948.4
94336.1
118601
115463
101487
88519.1
81916.2
79579.1
77931.9
77433
77262.9
89030.4
89652.7
90567.2
92829.5
97130.4
96231.1
101623
105256
100908
95628.6
91241
88168.1
85787.5
84672.9
84129.1
89007.1
89620.4
90614.2
93117.8
97709.2
97926
105004
112832
104121
96606.8
91965.7
88485.9
85974.2
84799.3
84237.7
88969.7
89502.7
90727.1
92899.8
97183.4
99558.5
105995
118388
106568
98474.2
92398.5
88800.6
86331.3
85046.4
84462.6
88905.3
89418.1
90580.1
93039.6
94305.7
101334
113896
131652
116024
100629
92888.6
89334.8
86811.6
85410.7
84781.2
88816.6
89282.5
90327.6
90665
93905.1
99192.6
113794
147213
123903
103713
94126.8
89599.5
87484.5
85874.6
85160.2
88725.1
89069.3
88717.6
90116
91806.2
96913.6
113235
161862
129889
109822
97491.5
91290.1
87536.4
86292.9
85524.9
88600.4
88914
88567.3
89758.3
90501.4
95755.5
108694
142498
143239
128120
103662
92762.4
88225.3
86580.8
85736.7
88459.9
88754.5
88363
88516
89854.4
94260.9
102521
87737.1
140398
139843
107209
93585.6
88383.6
86564.3
85726.9
88288.4
88558.3
88141.4
88213.3
89349.3
93200.6
100639
95956.6
110210
110912
103807
92367
87785.3
86175
85428.9
88153.8
88430
87955.1
88916.5
89296.6
93474.8
103940
133321
88772.1
93090.4
95183.5
89659.1
86737.9
85587.4
84973.5
88052.9
88433.4
89263.2
89261.3
90410.9
94784.8
109384
147482
110529
95916.4
90900.8
87811
86190.6
85003.2
84432.4
88020
88456.6
89454.7
91627.6
92565.1
99194.6
110422
129945
113407
96687.3
90120.7
87520
85566.3
84472.4
83964.6
88008.4
88478.7
89568
91512.6
95391.7
98310.5
106385
117565
104861
95871.7
90247.6
87236.1
85153.7
84089.5
83599.5
87995.6
88551.2
89464.2
91731.1
96053.5
96014.1
102710
109013
101195
94405.3
90244.5
87126.5
84855.4
83837.1
83344.1
87974.7
88543.9
89374.8
91439.7
95358
94170.3
98603.2
101256
98731.7
93569.9
89664.4
86885.3
84679.3
83694.4
83205.4
92781.5
93358.9
94195.6
95043.7
97981.7
97204.1
97602
100820
98272.5
96733.9
94462.5
92389.8
90570.3
89540.1
88963.4
92849.2
93464.1
94418.3
95675.1
98975.7
98803.8
100074
102519
99833.5
97994.3
95460.1
92884.2