/*--------------------------------*- C++ -*----------------------------------*\
| =========                 |                                                 |
| \\      /  F ield         | OpenFOAM: The Open Source CFD Toolbox           |
|  \\    /   O peration     | Version:  v2012                                 |
|   \\  /    A nd           | Website:  www.openfoam.com                      |
|    \\/     M anipulation  |                                                 |
\*---------------------------------------------------------------------------*/
FoamFile
{
    version     2.0;
    format      ascii;
    class       volScalarField;
    location    "0.04";
    object      p_rgh;
}
// * * * * * * * * * * * * * * * * * * * * * * * * * * * * * * * * * * * * * //

dimensions      [1 -1 -2 0 0 0 0];


internalField   nonuniform List<scalar> 
449343
(
103904
104044
104280
104517
104629
104418
103669
102314
100403
98143.3
95826.3
93726.2
92035.1
90863.5
90266.7
103907
104048
104284
104521
104633
104421
103672
102318
100408
98151.1
95835.4
93735
92042.7
90869.9
90272.3
103913
104054
104291
104528
104640
104426
103676
102323
100417
98165.1
95852.6
93751.8
92057.1
90881.8
90282.8
103922
104063
104301
104539
104649
104430
103679
102327
100427
98182
95875.4
93774.7
92076.4
90897.5
90296.4
103931
104074
104313
104550
104659
104433
103681
102330
100436
98200.4
95901
93800.4
92097.8
90914.3
90310.8
103941
104085
104325
104562
104669
104438
103684
102335
100449
98219.7
95925.5
93824.7
92117.2
90929.2
90323.1
103950
104094
104335
104572
104676
104443
103686
102337
100456
98235.2
95942.9
93843
92131
90938.7
90330.6
103956
104101
104341
104578
104681
104446
103685
102334
100453
98237.3
95947.1
93846.9
92133.3
90940
90331.3
103960
104104
104344
104580
104684
104449
103690
102338
100453
98229.8
95936.6
93836.5
92124.9
90933.2
90325.3
103960
104104
104343
104580
104685
104451
103692
102338
100447
98214.5
95918.4
93816.2
92108.4
90920.4
90314.5
103959
104102
104341
104577
104685
104455
103697
102340
100442
98199.5
95896.1
93793.1
92089.3
90905.3
90301.7
103957
104099
104337
104574
104684
104461
103706
102348
100441
98189.3
95877.2
93772.5
92071.6
90891.2
90289.5
103954
104096
104333
104571
104683
104466
103712
102354
100442
98182
95862.9
93756.7
92057.9
90879.9
90279.7
103953
104094
104331
104569
104682
104468
103716
102357
100441
98176.7
95853.6
93746.5
92048.9
90872.4
90273
103952
104093
104330
104567
104681
104468
103717
102358
100441
98173.8
95849
93741.6
92044.5
90868.7
90269.7
103747
103935
104270
104659
104953
104965
104352
102936
100774
98176.7
95562.6
93264.9
91464.6
90240.2
89622.8
103750
103938
104274
104664
104958
104968
104354
102939
100781
98187
95574.3
93275.3
91472.9
90246.8
89628.5
103756
103945
104283
104674
104968
104974
104358
102945
100793
98207.3
95598.1
93296.2
91489
90259.3
89639.3
103764
103955
104295
104687
104980
104979
104356
102943
100802
98231.6
95631.1
93325.8
91511.2
90275.9
89653.1
103775
103967
104309
104703
104994
104975
104354
102943
100799
98258.7
95670.9
93360.6
91536.3
90294
89668.1
103785
103979
104325
104721
105010
104983
104354
102948
100821
98286.6
95708.9
93394.3
91559.8
90309.9
89680.5
103794
103990
104338
104735
105018
104994
104358
102951
100830
98314.1
95752.5
93425.1
91576.4
90320.2
89687.8
103801
103997
104345
104743
105025
104997
104353
102895
100819
98313.5
95757.7
93429.2
91578.3
90321.1
89687.9
103804
104000
104348
104744
105027
105000
104362
102952
100823
98303.8
95739.9
93413.9
91567.8
90312.8
89681
103805
103999
104344
104740
105028
104997
104362
102947
100811
98274.8
95696.6
93381
91546.9
90298.1
89669.3
103803
103996
104339
104732
105022
104999
104371
102951
100799
98251.2
95660
93348
91523.7
90281.9
89656.3
103801
103992
104332
104725
105018
105013
104387
102965
100815
98236
95629.5
93320.3
91503.7
90267.5
89644.4
103799
103988
104327
104719
105015
105019
104399
102981
100820
98225.5
95608.7
93300.7
91489.1
90256.7
89635.3
103797
103986
104324
104715
105011
105020
104404
102985
100819
98217.3
95595.9
93289
91480.2
90249.9
89629.5
103796
103985
104322
104713
105009
105021
104407
102987
100819
98213.9
95590.7
93284
91476.2
90246.7
89626.7
103345
103641
104204
104955
105718
106296
106096
104524
101692
98209.3
94866.1
92119.7
90082.3
88745.8
88085.8
103348
103644
104209
104962
105726
106301
106097
104528
101701
98225.1
94882.8
92132.9
90091.7
88752.7
88091.7
103353
103652
104220
104977
105743
106312
106097
104537
101720
98262.5
94922.3
92161.7
90110.8
88766.2
88102.8
103362
103663
104236
105000
105768
106321
106078
104538
101715
98307.2
94985.9
92207.3
90138.4
88784.5
88117.1
103372
103677
104257
105027
105792
106303
106019
104470
101678
98375.5
95061.6
92262.2
90171.3
88804.6
88132.5
103383
103693
104282
105057
105831
106303
106004
104481
101714
98439.3
95152.8
92319.6
90201.8
88822.2
88144.5
103393
103705
104299
105086
105837
106326
106007
104486
101729
98478.1
95294.8
92372.9
90226.5
88833.2
88150.8
103400
103714
104309
105099
105853
106344
106030
104467
101714
98475.6
95295.5
92376.1
90227.3
88832.8
88149.3
103404
103717
104311
105097
105847
106332
106007
104478
101709
98458.3
95269.3
92352.9
90211.6
88821.1
88140.2
103404
103714
104304
105079
105850
106318
106010
104472
101686
98410.2
95119.3
92291.2
90178.5
88802.7
88127
103403
103709
104290
105060
105827
106331
106037
104470
101660
98353.1
95034.2
92235.6
90148.4
88784.7
88113.9
103401
103703
104278
105043
105813
106364
106118
104566
101725
98305.1
94975.3
92193.7
90124.3
88770.5
88103.4
103399
103699
104270
105029
105798
106369
106151
104582
101755
98284.5
94933.7
92165.3
90109.1
88761.3
88096.2
103399
103697
104264
105020
105788
106366
106162
104589
101754
98267.7
94913.2
92151.7
90101.4
88756.4
88092.4
103398
103696
104262
105017
105784
106366
106168
104594
101756
98264.3
94907.8
92147.5
90098.8
88754.6
88090.9
102569
103022
103929
105264
106895
108523
109508
107637
103327
97987.2
93407.7
90038.5
87721.8
86273.5
85579.6
102570
103025
103934
105273
106907
108532
109500
107641
103335
98007.5
93428.8
90052.7
87730.9
86280.1
85585.2
102574
103032
103947
105296
106937
108557
109504
107669
103390
98086.5
93490.2
90087.8
87750.9
86293.6
85595.9
102580
103043
103969
105337
106985
108612
109344
107696
103337
98243.5
93617.1
90149.6
87781.7
86312.2
85609.9
102588
103057
103998
105380
107048
108568
108585
107401
104126
98451.5
93775.8
90236.4
87818.7
86331.4
85623.5
102599
103077
104043
105472
107150
107808
108481
107400
104214
99724.5
93987.8
90332.3
87857.2
86346.1
85632.5
102607
103091
104069
105515
106507
107859
108465
107389
104219
99782.7
95265.3
90387.1
87876.1
86352.9
85634.4
102614
103104
104090
105536
106518
107892
108502
107302
104214
99790.3
95243.7
90386.2
87880.5
86351.4
85628.1
102619
103105
104085
105530
106518
107882
108477
107361
104195
99759
95224.5
90354.9
87850
86332
85616.7
102621
103100
104068
105498
107177
107839
108471
107371
104167
99707.3
93901.4
90270.4
87811.3
86311.1
85602.9
102622
103093
104037
105421
107088
108609
108605
107400
104151
98402.6
93711.9
90182.5
87775.8
86296.4
85592.3
102623
103088
104018
105389
107041
108676
109396
107727
103330
98220
93585.2
90118.9
87754.1
86286.7
85585.7
102625
103085
104005
105359
107005
108636
109581
107734
103439
98114.3
93501.5
90088
87744.2
86282.7
85583.2
102626
103084
103998
105343
106982
108620
109590
107728
103411
98073.3
93474.7
90079.1
87742.8
86282.8
85583.4
102627
103084
103996
105338
106976
108617
109608
107741
103428
98077.7
93475
90080.6
87744.8
86284.3
85584.4
101220
101846
103147
105218
108123
111761
115690
113072
105799
96767.5
90485.4
86615.8
84183.9
82752.3
82095.6
101218
101845
103150
105227
108138
111778
115678
113073
105808
96791.8
90503.8
86623.7
84188.8
82756.8
82100
101216
101847
103159
105252
108189
111836
115690
113095
105901
96889.2
90570.2
86649.9
84202.5
82767.1
82108.7
101215
101852
103182
105330
108365
112031
113380
113198
107522
97448.2
90818.8
86724.9
84227.2
82782.1
82120.1
101212
101856
103212
105400
108470
110535
113369
113168
107693
99789.6
91083.1
86811
84254.3
82791.9
82127.9
101217
101879
103286
105632
107626
110744
113421
113104
107730
100105
93342
86959.3
84266.3
82799.6
82128.8
101215
101876
103288
105033
107698
110867
112508
112444
108085
101154
93585.2
88807.9
84214.9
82775.1
82117
101225
101895
103370
105056
107757
110915
112546
112436
108119
101199
93662.2
88865.1
84308.4
82760.9
82108.2
101229
101892
103309
105050
107752
110911
112522
112421
108048
101132
93577.6
88811.9
84168.6
82741.4
82089.2
101241
101904
103314
105664
107661
110808
112567
112399
107969
100057
93321.8
86844.6
84181.2
82741
82081.1
101249
101896
103258
105455
108529
110650
113391
113052
107543
99813.1
90937.1
86704.2
84179
82734.4
82077.8
101261
101902
103238
105396
108443
112115
113427
113237
107642
97371.5
90746
86666.1
84178.3
82739.2
82080.4
101271
101906
103226
105330
108279
111935
115814
113212
105970
96929.9
90583.3
86646.5
84188.6
82747.4
82086.4
101279
101911
103223
105312
108236
111890
115809
113195
105938
96905.5
90576.7
86662.5
84204
82757.5
82093.8
101284
101914
103224
105307
108225
111880
115830
113215
105969
96935.9
90599.6
86681.3
84217.1
82765.3
82099.1
99048.3
99797.4
101416
104189
108607
115566
121239
126737
113287
92275.5
84909.6
81310.9
79218.1
78112.8
77644.8
99041.3
99791
101412
104192
108624
115582
121234
126708
113231
92230.1
84893.2
81296
79212.8
78113.5
77647.6
99026.6
99777.9
101403
104188
108643
115625
121218
126676
113180
92204.7
84868.4
81267.8
79207.4
78116.5
77653.3
99010.1
99769.1
101412
104256
109031
113458
121309
126778
113226
96752.7
85060.6
81227.1
79207.5
78125.2
77661.2
98983.3
99738.4
101388
104330
107819
113742
121614
124396
114675
97662.5
88445.2
81211.9
79145.3
78109.2
77659.9
98971.1
99722.9
101455
103935
107949
112836
119867
123411
114886
100142
88762.4
83688.9
79079.8
78068.3
77646.3
98950.3
99691.8
101457
103993
108117
112895
118993
123457
115506
101270
90569
83791
78988.1
78006.2
77615.8
98946.9
99675.2
101476
104067
107489
112421
119045
123470
115509
101307
90566
83786.3
80912.9
77947.4
77593.7
98964.5
99706.3
101473
104047
107497
112913
119054
123426
115353
101127
90431.7
83664
78896
77952.1
77573.4
98996.2
99750.8
101491
103965
108126
112949
119010
123392
115201
100864
90289.9
83577.6
78940.4
77979.1
77574.7
99022.7
99782.4
101442
104399
107907
113918
119846
124342
114584
99577.2
88363
81017.1
79019.4
78019.1
77585.1
99059
99822.8
101477
104340
109146
113620
121479
126893
113224
96846.5
84934.9
81126.7
79128.8
78059.2
77601.4
99085.9
99842.8
101479
104283
108764
115776
121378
126819
113287
92275.2
84892.1
81260.9
79184.2
78085.2
77618.3
99106.4
99862.3
101496
104295
108750
115732
121379
126873
113407
92442.9
85009.4
81354.1
79232.8
78111.1
77635.1
99117
99872.3
101503
104295
108736
115718
121408
126947
113566
92624.3
85106.1
81416.4
79266.5
78128.5
77646
95833.8
96557.7
98174.1
101116
106125
112998
129550
159628
117757
84909.9
74694.7
73377.2
72649.2
72425.7
72370.3
95818.4
96541.5
98156.4
101096
106109
112984
129510
159555
117307
84638.9
74584.4
73317.6
72631.6
72423.3
72372.8
95785.4
96501.2
98105
101017
105990
112950
129387
159427
117068
84494
74440.7
73240.2
72606.3
72419.8
72378.6
95740.3
96451.6
98047.8
100805
105377
113299
129343
159198
116907
84666.3
77881.6
72996.1
72578.6
72416.9
72388.4
95672.2
96356.1
97853.3
100879
105396
112404
126371
158940
118184
88877.1
77827.4
75279.8
72412.3
72390.1
72384.6
95608.3
96218.6
98335.1
100941
105149
112374
124946
153917
123355
91315.4
80337.6
75283.4
74158.3
72304.2
72364.4
95571.2
96174.7
98335.6
100944
105182
111971
124879
153946
124145
91974.6
81850.9
76943.8
74123.7
72288.9
72343.4
95544.4
96149.4
98399.5
100976
105197
111974
124909
154092
124424
92214.9
81899.2
76915.3
74105.2
72265.8
72294.7
95585.3
96189.8
98362.3
101008
105238
112011
124977
154130
123453
91498.1
81587.6
76766.2
73987.9
72219.7
72285.7
95631.4
96244.3
98379.6
100962
105253
112068
125074
154169
122766
90735.8
81179.1
76575.3
73940.1
72185.5
72267.7
95709.4
96400
97912
100947
105496
112568
125226
154298
122555
90382.4
79770.2
74947.4
72226.8
72262.2
72281.4
95789.4
96507.5
98117.6
100901
105388
113395
126685
159384
117041
88623.2
77590.4
72845.2
72466.8
72326.3
72305.7
95844.4
96568.1
98188.4
101126
106137
113128
129628
159587
117188
84585.7
74481.5
73226.6
72570.1
72372.3
72327.1
95884.5
96616
98247.9
101213
106261
113173
129700
159731
117414
84875.3
74755.7
73396.9
72653.6
72414.3
72351.1
95903.7
96636.1
98269.4
101236
106277
113171
129750
159828
117987
85413
75007.1
73528.4
72711.3
72441
72365.7
91513.7
91955.8
92939.4
94740.8
97693.9
104436
111868
109420
32148.9
55434.4
60043.5
62998.6
64914
66142.3
66707.2
91490.9
91930.2
92908.7
94698.4
97655.5
104391
111828
109329
24848.8
54635.4
59773.3
62907.2
64896.6
66142
66714
91441.1
91867.4
92833.6
94625.3
97531.8
104269
111697
109180
24233.7
54325.2
59695.2
62906.8
64905.9
66158.5
66735.6
91368.8
91765.7
92705.4
94329.7
98807.7
103819
111372
108875
24738.7
54609
61154.2
63083.8
64959.5
66189.1
66773.4
91264.2
91626.1
92476.9
95466.1
98544.9
104200
112056
108395
28085.4
58495.7
63022.1
64529.6
65134.6
66260.2
66814.7
91145.6
91485.7
93615.6
95343.2
99011
104419
111787
107839
31444.5
59595.3
64422.4
64828.1
66294.8
66355.2
66839.2
91102.8
91432.6
93590.3
95262.6
99258.6
104350
111674
107629
36768.9
61582.9
65174.3
65999.4
66321.7
66412.2
66864
91084
91402.2
93557.7
95906.6
99259.2
104343
111702
107799
48786.8
63096.1
65501.5
66566.7
66356.7
66413
66833.3
91110.5
91441.7
93566.2
95909.4
99278.8
104386
111815
108158
30157.5
60746
64897.7
66340.5
66216.7
66329.5
66799.7
91162.9
91505.9
93625.8
95311.7
99310.4
104471
111976
108543
25708.2
58720.4
64043.2
65491.6
66058
66220.3
66730.2
91294.2
91662
92525.8
95458.4
99124.6
104593
112177
108868
24729
57905.3
63415.7
64212.2
64917.1
66107
66689
91411.1
91816.2
92773.5
94427.7
98838.2
103709
111383
109280
25022.9
56028.8
60787
62882.9
64818
66076.2
66671.2
91494.2
91930.6
92917.8
94739.6
97689.5
104247
111795
109442
25395.3
54346.2
59667.2
62870.3
64852
66094.1
66667.1
91552.2
92002.2
93002.5
94826.2
97826.2
104548
112004
109564
24908.3
54871.2
60024.9
63003.8
64914.2
66121.1
66676.6
91579
92032.3
93038.3
94872.6
97865.4
104617
112073
109583
26577.3
56242.8
60508.2
63197.7
64984.4
66149
66689
86357.8
86275.5
86088.9
85809.2
85806.2
89899.8
93678.3
106900
24177.4
34258.5
46360.2
53120
57620.6
60274.4
61471.8
86333.1
86247.7
86058.1
85773.5
85785.9
89856.5
93636.9
106711
2743.54
33489.5
46090.7
53068.2
57617
60285.1
61489.4
86282.7
86188.7
85993.8
85745.1
85735.4
89744.9
93522.5
106600
2382.97
33309.1
46167
53158
57685.9
60342.2
61540.1
86213.3
86092.1
85900.3
85798.9
88499.8
89670
93278.9
106437
3841.02
33672.1
46471
53537.7
57844.3
60450.3
61630.7
86122.6
85979.8
85840.9
87774.8
88514.6
91487.8
94306.6
106376
6077.61
33982.3
47391.3
54457.5
58142.9
60633.1
61753.6
86025
85949.2
87419.7
87687.6
89744.2
92264
94166.4
105953
3953.29
34475.2
48168.9
54721.5
58897.5
60800.8
61855.5
85995.2
85928
87317.5
87650.6
90371.2
92176.8
94093.1
105833
44556.9
37008.8
49006.6
55348.3
58992.2
60881
61915.1
85979.2
85904.4
87267
88632.4
90324.1
92140
94074.1
105805
58130.3
40315.4
49576.5
55661.7
58996.6
60887.3
61899.8
85996.3
85929.2
87268.7
88627.4
90330.2
92151.8
94106.1
105938
2767.19
36961.9
48923.8
55446.7
58880.5
60792.2
61849.7
86029.7
85954.1
87324.2
87692.7
90381.9
92224.1
94197.2
106070
2336.14
34232
47918.8
54846.6
58725.4
60658.8
61747.1
86137.2
85999.3
85865.7
87733.8
89835.7
92374.8
94346.6
106229
2366.2
33334.6
47276.2
54114.3
57917.2
60480.5
61620.8
86240.5
86128
85954
85874.6
88637.6
89957.9
93642.9
106691
3535.15
33089.1
46380.8
53315.8
57686.3
60323.9
61513.8
86321.2
86239.1
86069.7
85861.6
85890.9
89888.9
93632.1
106730
4944.5
33249.2
46076.7
53088
57606.9
60258.1
61452.9
86380.9
86308.8
86146
85902.1
85963.5
90024.3
93825.6
106894
2825.2
33649.7
46237.4
53120.3
57607.6
60240.2
61429.3
86410
86341.9
86184
85947.8
85994.7
90117.7
93924.1
106983
8022.42
34544.2
46679.1
53283
57660.7
60255.8
61429.5
81066.8
80399
79013.7
76816.9
76469.8
75405.6
77976.5
11105.9
25990.7
38902.8
46999.2
52675.7
56098.2
57696.6
81044
80373.9
78987.6
76793.2
76435.3
75366.7
77937
2201.29
25311.3
38734.5
46985.9
52681.9
56119.1
57723.8
81003.5
80333.1
78936.6
76747.2
76431.4
75330.5
77845.1
2220.8
24983.2
38875.5
47080.9
52769.5
56199.4
57794.7
80961.5
80286.7
78883.7
76893.9
76711
75254.3
77677.6
2238.85
25155.5
37934.6
47417.9
52939.5
56340.2
57913.4
80923.2
80249.1
78994.8
78921.3
77279.5
77374.3
78402
2230.16
23016.7
37588
47188.9
53227.3
56565.4
58074.4
80885.5
80341.6
80446.5
79180.5
78655.6
78382.5
78451.2
2267.11
22467.5
37534.1
47367.2
53162.1
56682.6
58211.8
80874.4
80348.6
80374.2
79251.5
79437.2
78431.9
78528.5
2295.83
23021
37994.3
47342.4
53292.4
56738.8
58272.4
80857.1
80334.3
80340.4
80111.6
79490.9
78387.6
78432.8
2150.34
24974.5
38448.7
47379.7
53293.4
56747
58261.6
80865.6
80338.7
80331.7
80110.5
79466.3
78324.9
78312.2
2287.09
24857.4
38224.7
47263.4
53224.9
56668.7
58211.6
80870.7
80324.3
80374.4
79229.7
79382.8
78310
78294.2
2318.8
23338.6
37614.4
47077.7
53102.1
56563.8
58109.8
80913.3
80243.9
78989.9
78902.4
78589.8
78321.3
78357.7
2321.86
22754.1
37176.6
47012.8
53048
56426.2
57946.8
80962.8
80297.4
78916.4
76951.6
76843.7
75522.8
77580.3
2319.27
23402.8
37849.7
47265.2
52799.7
56213.4
57787.1
81016.1
80359.5
78992.8
76858.4
76562.5
75488.3
77986.5
2362.4
24838.1
38763.9
46986.5
52667.3
56096.3
57686.9
81066.2
80412.6
79060.4
76921.9
76628.4
75609.4
78197.1
2369.3
25081.2
38681.2
46940.3
52616.7
56037.4
57632.1
81093.8
80444.2
79096.9
76963.3
76630.7
75682.2
78317.8
2399.71
25110.8
38783.2
46972.5
52625.8
56030
57615.8
76558.7
75344.8
72801.6
68375.7
66057.9
58489.8
54232.6
3787.67
2186.72
25122
36465.2
45023.2
50867.1
54442.2
56156.7
76532.1
75313.8
72761.9
68322.1
65999.3
58417.7
54159.1
2306.98
2196.64
24033.2
36315.9
44995.6
50866.5
54466.2
56186.6
76486.7
75266.5
72687.7
68199.1
65911.5
58290.1
54043.1
2557.57
2216.17
20413.4
36560.5
45066.2
50949.7
54545.6
56259.6
76444.4
75227.2
72574
68119.2
65820.9
58131.2
53986.9
2365.81
2238.82
20979.2
34123.9
45204.9
51074.3
54672.3
56371.6
76421.2
75189.7
72502.9
71072
65629.6
61057.2
55948.2
3134.07
2249.8
18557.2
32869.1
43652.9
51217.5
54857
56512
76400.5
75184.7
74404.8
70936.3
67587.3
62521.7
56424.8
2791.5
2248.24
17914.5
32200
43688.4
50231.3
54950.1
56640.7
76378.1
75156.2
74367.3
70804.2
68425.5
62653
57253.2
2263.59
2287.44
17350
32253.9
42951.5
50324.4
54991.6
56693.6
76350.2
75133.7
74318.8
72123.3
68357.4
62495.5
56563.6
2269.06
2304.75
17614.5
32421.2
42649.7
50351.5
55002.4
56691.1
76354.4
75129.4
74312.8
72116.9
68296.3
62305.7
56071.4
2363.28
2516.8
18706.7
32539.3
42645.8
50325.6
54948.6
56644.3
76358.9
75139.9
74359.5
70772.5
68316.1
62255.7
55981.9
2313.19
2381.96
18748.6
32443.9
42943.3
50242.5
54865.6
56553.5
76376.2
75148
72465.2
70999.2
67517.1
62305.5
56018.3
2311.1
2311.46
18528.9
32296
43603.2
51117.1
54755.7
56392.7
76406.6
75198.9
72571
68162
65797.7
58246.7
54193.3
2391.83
2312.55
19354.4
34046.1
45117.2
50951.8
54539.6
56238.3
76458.1
75254.2
72709.2
68286.6
65958.8
58455.4
54322.2
2420.48
2369.03
20451.3
36494
44968.1
50833
54420.6
56127.2
76512.2
75314.5
72806.6
68444.7
66154.9
58698.3
54590.3
2511.96
2382.2
23723.3
36312
44915.1
50764
54347.1
56058.2
76543.6
75352.4
72858.3
68519.6
66247.3
58859.3
54776.4
2409.12
2406.46
24165.8
36364.1
44898.8
50751.1
54323.2
56030.3
73671.3
72028.8
68545.8
62411.6
51878.9
42197.6
17582.6
2247.37
2229.24
26917.6
37518.9
46292.3
51977.1
55419.8
57064.1
73630.3
71978.6
68468.8
62297
51705.4
42017.6
17597.3
2256.85
2200.24
25633.2
37711.6
46288.7
51989.6
55449.7
57096.9
73558.3
71897.6
68347.4
62133.9
51452.1
41560.5
17435.7
2251.05
2223.44
20855.4
37849.4
46390.6
52076.8
55528
57171.6
73476.7
71821.5
68178.8
61943.6
55888.3
41131.9
17440.2
2262.16
2236.77
20862.5
34089.7
46428.7
52164.4
55634.9
57275.6
73413.7
71753.7
68076.6
64527.3
55796.1
44983.5
23908.9
2282.61
2254.96
17733.4
32272.2
43751.1
52247.5
55786.1
57398.3
73365.6
71679.1
69742.5
64440.5
58013.8
46996.4
25221.4
2273.54
2279.98
17253.7
31196.3
43676.8
50404.8
55896.3
57523.8
73310
71603.1
69731.7
64302.4
58960
47184.1
28651.5
2309.63
2291.88
16517.6
31048.5
42350.3
50451
55947.1
57582
73265.6
71560.8
69681.7
65673.8
58801.4
46909
25363.4
2275.24
2245.95
16441.1
31082.5
41758.8
50493.7
55961
57588.2
73266.6
71556.1
69666.5
65650.3
58728.3
46687.3
24800.2
2289.92
2277.28
17170.7
31286.2
41819.8
50495.8
55912.1
57531.9
73287.7
71597.9
69705.8
64259.3
58808.8
46669.9
24845.8
2232.51
2296.51
17630.5
31422.5
42497.2
50440.5
55827.1
57444
73320
71661
67989.5
64497.7
57913.9
46771.5
24964.8
2287.17
2292.68
17630.1
31460.1
43740.7
52156.9
55667.8
57265.1
73382.2
71736.7
68120.6
61940.6
55901.8
41403.8
19620.1
2280.41
2273.16
18835.7
34130.2
46351
52030.4
55483
57116.1
73467.4
71824.9
68312.4
62171.4
51610.6
41658.9
17990.9
2278.25
2375.7
20870.3
37856.9
46304.1
51943
55371
57002.3
73545.5
71916.8
68456.8
62375
51927.3
42128
18162.8
2272.01
2389.24
25559.4
37946.6
46257.7
51882.7
55298.7
56928.2
73590.2
71973.1
68544.7
62509.1
52130.3
42477.4
18476.1
2283.15
2411.05
26322.4
37961.6
46267.1
51875.2
55270.7
56895.4
73066.2
71344.7
67665.9
61392.6
50427.2
39174.1
5093.93
2278.8
2173.95
31200
42340.2
50762.5
55795.4
58790.2
60205.5
73004.7
71267.4
67539.1
61157.6
50162.1
38510.2
4327.56
2263.67
2256.41
31411.4
42759.6
50755.3
55830.7
58831.4
60247.1
72899.7
71144.2
67350.4
60837.6
50341.5
36859.9
6605.68
2266.34
2223.04
24169.5
43052.5
50896.7
55925.1
58924.9
60337.1
72775.6
71019.9
67160.8
60608
52443
35746.9
7941.76
2280.15
2239.09
24197.6
38203.3
50981.2
56032.1
59046.4
60459.2
72670.2
70921
67075.2
62043
52040.7
38307.8
16914.8
2292.36
2265.13
20008
35662.9
47487.1
56181
59222.9
60603.8
72587.6
70836.6
67918.7
61841.2
53441.9
39399.6
16972.9
2293.71
2283.15
19420.3
34143.1
47394.5
53713.6
59413.8
60757.7
72501
70727
67850.8
61684.3
54010.1
39185.4
15854.2
2293.6
2260.55
18357.9
33847.8
45603.7
53773.1
59509.5
60839.9
72441.8
70661.3
67797.8
62617.2
53824.7
39050.5
16666
2252.37
2264.76
17973.6
33895.3
44807.1
53849.1
59530.6
60852.9
72432.5
70653.5
67777.7
62586
53777.6
39013.6
16753.8
2273.52
2311.88
18820.6
34250.2
44928.9
53859.7
59460.7
60778.4
72462.2
70706.6
67797.8
61649.2
53903
39096.2
16784.4
2250.34
2321.46
19568.4
34471.3
45850.1
53761.8
59303.7
60635.8
72510.3
70760.5
66921.3
61899.2
53377.7
39352.1
16974.7
2262.87
2303.05
19732.5
34549.6
47498.8
56019
59041.9
60416.9
72601.3
70854.8
67020.7
60536.5
52249.3
36280.9
15686
2312.49
2288.82
21511
38156.4
50822.2
55821
58825.9
60235.4
72719.6
70980.7
67224
60781.6
50395.6
36476.1
7413.91
2296.92
2381.86
24414
43064.2
50765.2
55729.1
58700.6
60101.5
72825.8
71110.1
67431.8
61127.4
50421.4
38239.8
5063.25
2272.3
2736.89
31817.6
43097.4
50706.8
55685.6
58623.6
60016.6
72888.7
71191.5
67567.7
61382.4
50722.9
39039
6121.93
2297.77
2863.01
32145.4
43104.6
50767.5
55689.9
58595.4
59979.9
75005.6
73681.5
70866.2
66408.3
57094.2
47054.2
9335.56
2233.78
26734.6
46890.5
52698
58734.9
62135.7
64194
65181.1
74924.2
73571.9
70677.4
65995.3
56302.5
45923.8
2875.86
2290.1
27012.8
47044
52796.4
58675.5
62176.4
64244.5
65234.6
74790.5
73404.7
70423
65373.4
57723
42970.2
12252.2
2321.87
2235.41
35906.2
53139.3
58725.6
62267.7
64364
65349.9
74632.7
73212
70108.8
64912.9
56711.8
41280.7
13303.6
2331.97
2236.11
34113.7
47282.9
58885.2
62416.4
64533.4
65514
74492.5
73050.2
69914
64659.9
55585
41258.7
18598.4
2265.59
2255.02
27190.9
44066.4
54987.4
62746.7
64786.7
65717.1
74378.3
72946
69723.5
64133.4
55510.1
40992.3
17707.8
2279.74
2274.1
25855.6
41944
55083.1
59994.8
65123.5
65940.9
74261.9
72801.7
69496.2
63848.6
55411.3
40378.2
16027.2
2282.59
2287.85
23024.9
41505.5
53056.7
60169.5
65290
66062.5
74183.9
72709.3
69392.7
64044.5
55119.8
40163.6
17057.6
2284.8
2363.9
21121
42126.7
52275.3
60361.5
65324.2
66079
74157.3
72686
69361.1
63989
55039.5
40091.5
17217
2284.94
2300.49
26144.9
43050.5
52478.4
60313.2
65194.8
65964.6
74186.3
72741.2
69406.3
63793.8
55246.6
40320
17288.1
2278.92
2312.82
26695.3
42915.5
53353.6
60029.5
64929.5
65749.8
74242.6
72792.2
69651.1
64173.3
55457.1
41035.3
17753.7
2272.26
2307.65
26750.7
42591.3
54989.5
62418.8
64490.3
65436.3
74351.4
72934.3
69846.8
64716.5
56025.7
41161.7
17615.5
2315.19
2347.31
29557.3
46977.1
58488.2
62042.4
64190.2
65186
74492.7
73116.7
70163.9
65183.1
57654.8
42428.3
13002.2
2343.5
5755.91
35022
52953.2
58416.7
61928.4
64021.5
65010.3
74621.9
73285.8
70437.4
65798.3
56528
45949.5
4193.13
2352.54
28157.9
47423
52861.3
58454.1
61898.3
63923.9
64903.2
74701.8
73397.2
70634.7
66242.6
57382
47457.1
12753
2428.15
30746.9
48136.1
53131.4
58599.5
61915.5
63893.2
64859.1
79041.6
78478.3
77326.6
76708
74681.4
81141.9
116339
93435
78974.5
71215.2
68119.6
69640.3
70323.4
71005.9
71391.8
78948.6
78337.1
77077.8
76096.9
73357.3
78698.6
110668
73666.6
76776
70452.5
67814.2
69520.5
70353.2
71063.9
71458.3
78798.5
78122.8
76757.2
74670.1
72678.9
64055.6
58893.5
30632
47264.8
58889.8
67674.1
69293
70442.1
71211.1
71602.5
78620
77875.6
76295.6
73937.4
67582.2
58760.1
38894.7
2242.68
24299.5
55888.9
62339.3
69432.2
70641.6
71442.2
71817.8
78458.5
77655.7
75991.1
71682
66101.5
54936.8
31170.4
2270.41
12213
45393.3
58833.1
66176.1
71107
71778.3
72090.3
78328.9
77532
74577.6
70964.3
64350.7
52496.4
27422.3
2299.68
9513.34
42477.5
56618.2
66741.9
68829.7
72166.8
72393.4
78190.4
77365.2
74233.8
70611.9
63444.9
51613.9
27046.1
2302.96
8445.84
35592.7
56721
65054.2
69223.8
72388
72554
78090.5
77246.1
74079.5
69883
62958.2
51020.9
27814.9
2168.7
2297.85
52917.9
59296.5
64546.7
69505.2
72421.7
72567.6
78036.7
77187.7
74012
69770.7
62702.9
50225.6
25610.5
2305.29
2642.12
53472.9
60895.3
64720.5
69314
72216
72399.4
78048.7
77220.6
74063.9
70400.8
62968.4
50578.3
25747.2
2300.54
9793.42
46477.4
58891.4
64982.8
68737.2
71840.5
72103.8
78092
77262.9
75544.2
70813.1
64161
52478.3
28470.6
2270.91
9907.31
44023.8
56887.1
65834.2
70510.1
71319.1
71685.6
78203.8
77448.5
75857.6
73524.3
66536.3
58167.9
34071
2327.64
11074.3
48266.7
61174
68634.3
70016.7
70930.7
71357.3
78354.6
77674.3
76313.6
74283.2
72452.9
61397.1
48454.4
32921.5
44062.9
57085.2
66906.9
68649.5
69877.1
70706.8
71131.1
78494.1
77883.2
76651.7
75644.4
73240.9
78855.8
109968
80893.5
77551
70244.8
67370.9
68999.2
69854.3
70583.6
70995.4
78582.7
78022.8
76902
76279.4
74561.9
81297.6
115626
101668
81332.6
71461
67941.2
69227.7
69881.9
70547.1
70939.3
84101.6
84334.3
84717.8
87191
91051.1
95392.6
122135
119801
103205
89641.7
82871.9
80465.7
78746.7
78181.8
77976.9
84026.8
84210.6
84543.8
86828.9
90442
95382.9
124998
130535
107255
89657.8
82825.3
80475.7
78823.2
78266.4
78065.6
83901.1
83981.3
84316.3
85291.9
88678.6
90691.7
112969
140382
110455
88158.4
82434.5
80263.9
78992.8
78450.9
78247.4
83746.6
83754.8
83863
84518.8
82945.6
87364.3
103750
131976
106037
86469.2
80377.3
80274.1
79264.1
78740.1
78514.8
83600.3
83536.6
83469.7
81386
81278.1
79649.4
80140.6
106324
85757
79310.6
78684.2
78991
79748.9
79128.6
78843.8
83485.9
83334.4
81453.3
80684
78217.7
75075.2
68478.5
35197
73114.6
78076
78579
79900.5
78781.6
79500
79183.4
83347
83158.1
81145.9
80279.7
76480.8
73688.5
68570.3
84242.3
52711.3
78549.1
81490.1
79977.4
79328.3
79728.2
79369.7
83230.3
83023.4
80961.3
78732.6
75894.4
72228
66098.5
43144.7
33147.9
79588.3
85519.2
80522.8
79469.4
79741.4
79376
83136
82914.4
80838.4
78551.1
75439.9
70565.4
57816.6
2624.4
70663.3
103046
86812
80187
79094.7
79458.9
79149.3
83102.4
82902
80827.4
79829.5
75566.9
71085.3
56893.4
2349.76
65441.7
83802.7
80501.6
78535.7
78308.1
79021.8
78788.1
83097.6
82982.7
82795.5
80232.1
77554.7
74243.5
70853.5
66143.8
68035.6
73092
75600.4
77730.6
78862.3
78502.1
78314.5
83175.4
83145.6
83182.7
83727
81518.6
84793.5
91315.6
131719
84811.1
78121.4
77875.3
79028
78372
78060.9
77927.3
83293.8
83343.7
83622.9
84535.4
87847.7
89168.6
110092
134490
105532
85456.6
80931.4
79186.6
78173.1
77784.8
77651
83405
83560.5
83870.7
86010.9
89574.8
94545.7
122626
126661
104571
88276.7
81761.4
79597.6
78087.8
77630.5
77478.3
83473.2
83680.1
84037.9
86379
90085.7
94473.4
118739
115600
101625
88656.4
82053.5
79716.5
78069.3
77570.4
77400.3
88893
89515.4
90429.8
92692.1
96993.1
96093.8
101486
105119
100771
95491.2
91103.6
88030.8
85650.2
84535.5
83991.7
88889.4
89502.7
90496.5
93000
97591.5
97808.3
104886
112714
104003
96489
91848
88368.2
85856.4
84681.6
84120
88871.6
89404.6
90629
92801.7
97085.3
99455.5
105892
118285
106465
98371.2
92300.4
88702.5
86233.2
84948.3
84364.5
88826.8
89339.7
90501.6
92961.2
94222.3
101251
113813
131566
115938
100545
92805.2
89256.3
86733.1
85332.3
84702.8
88757.8
89223.6
90268.7
90601.3
93841.4
99126.4
113727
147145
123835
103646
94060.6
89535.7
87425.7
85815.7
85101.4
88685.9
89030.1
88673.4
90071.9
91759.6
96865.8
113187
161815
129841
109774
97443.6
91245.9
87492.3
86253.6
85485.7
88580.8
88894.4
88542.8
89733.7
90473.2
95727.3
108666
142470
143211
128092
103634
92735.4
88200.8
86561.2
85717.1
88459.9
88754.5
88358.1
88508.7
89845.8
94252.3
102512
87728.5
140389
139835
107201
93577
88378.7
86564.3
85726.9
88308
88577.9
88156.1
88225.5
89360.3
93211.6
100650
95967.6
110221
110923
103818
92378.1
87800
86194.7
85448.5
88193
88469.2
87989.4
88950.8
89327.3
93505.5
103971
133352
88802.8
93121.1
95214.2
89691
86772.3
85626.6
85012.8
88111.7
88492.3
89322.1
89315.2
90462.4
94835.1
109434
147532
110580
95966.6
90951.1
87864.9
86249.5
85062
84491.3
88098.5
88535.1
89533.2
91706
92638.7
99268.2
110493
130015
113477
96758.4
90194.3
87598.4
85644.7
84550.8
84043
88106.5
88576.8
89666.1
91610.7
95489.8
98403.7
106478
117658
104954
95964.9
90345.7
87334.2
85251.8
84187.6
83697.6
88113.3
88669
89582
91848.8
96171.2
96131.8
102828
109131
101312
94523
90362.2
87244.2
84973.1
83954.8
83461.8
88112.1
88681.2
89512.1
91577
95495.4
94307.6
98740.6
101393
98869.1
93707.3
89801.8
87022.7
84816.7
83831.8
83342.7
92644.2
93221.5
94058.3
94906.4
97844.4
97066.7
97464.6
100683
98135.1
96596.6
94325.1
92252.4
90432.9
89402.8
88826
92731.5
93346.3
94300.5
95557.4
98858
98686.1
99956
102401
99715.8
97876.6