/*--------------------------------*- C++ -*----------------------------------*\
| =========                 |                                                 |
| \\      /  F ield         | OpenFOAM: The Open Source CFD Toolbox           |
|  \\    /   O peration     | Version:  v2012                                 |
|   \\  /    A nd           | Website:  www.openfoam.com                      |
|    \\/     M anipulation  |                                                 |
\*---------------------------------------------------------------------------*/
FoamFile
{
    version     2.0;
    format      ascii;
    class       volScalarField;
    location    "0.003";
    object      p;
}
// * * * * * * * * * * * * * * * * * * * * * * * * * * * * * * * * * * * * * //

dimensions      [1 -1 -2 0 0 0 0];


internalField   nonuniform List<scalar> 
449343
(
93118.2
93297
93607.5
93952
94183.5
94137.9
93542.6
92335.1
90553.4
88393.7
86143.7
84081.1
82406.5
81239.5
80642.9
93101.7
93280.7
93591.4
93935.9
94167
94119.8
93523.7
92316.3
90536
88378.1
86129.1
84066.3
82390.7
81222.8
80625.7
93087.8
93267.3
93578.5
93923
94152.7
94102.2
93504.2
92297
90519.3
88365.1
86118.9
84056.1
82378.6
81208.7
80610.5
93076
93256.1
93568
93911.9
94139.6
94082.9
93482.6
92274.3
90500.6
88352.4
86111.6
84049.4
82369.4
81196.8
80597.1
93065.2
93245.9
93558.6
93901.8
94126.1
94061.8
93457.6
92248.8
90479.9
88339.7
86106.3
84045.2
82362.2
81186.2
80584.6
93053.8
93235.3
93548.7
93891
94112.6
94042.4
93434.4
92226
90461.9
88329.5
86102
84041.9
82355.4
81175.8
80572.2
93040.6
93222.6
93536.6
93878.6
94097.6
94024.4
93414.5
92205.3
90446.1
88320
86094.7
84036.6
82346.7
81164
80558.8
93024.2
93206.4
93520.6
93862.8
94080.9
94006.8
93392.4
92181.1
90422.1
88303.4
86081.4
84023.8
82332.6
81148.8
80543.1
93004.1
93186.2
93500.2
93842.4
94061.4
93988.6
93378.7
92170
90411
88285.9
86060.8
84002.6
82312.6
81129.8
80524.6
92980.7
93162.3
93475.9
93818.6
94040.7
93971.1
93363.8
92156.1
90392.5
88260.4
86033.3
83973.3
82286.9
81107.3
80503.7
92955.1
93136.1
93449.1
93793
94017.9
93954.6
93351.3
92143.5
90375.4
88235.8
86002.7
83941.9
82258.9
81082.9
80481.3
92928.8
93109.1
93421.5
93766.2
93994.6
93939.1
93340
92132.8
90360.1
88212.8
85972.6
83910.7
82230.7
81058.1
80458.4
92903
93082.7
93394.6
93739.8
93970.6
93921.6
93324.9
92119
90342.6
88189.3
85943.7
83881.1
82203.7
81033.9
80435.7
92878.7
93058
93369.4
93714.9
93947
93901.4
93306.8
92101
90321.8
88165
85916.7
83854.3
82178.7
81010.8
80413.7
92856.6
93035.7
93346.8
93692.3
93925
93881.1
93287.3
92081.4
90301
88142.4
85893.1
83830.9
82156.3
80989.4
80392.7
92918.6
93147.2
93561.5
94067.1
94497.3
94677
94232
92981.2
90961.6
88468.6
85917.3
83647.3
81852.4
80623.9
80002
92902.1
93131.1
93546.1
94052.1
94482.1
94659.8
94212.9
92962.4
90945
88454.9
85904.6
83633.4
81836.8
80606.9
79984.3
92888.5
93118.4
93534.7
94041.6
94470.7
94643.8
94193.6
92944.2
90930.9
88446.9
85899.3
83625.6
81825
80592.4
79968.5
92877.1
93108.2
93526.5
94034.2
94460.5
94625
94167.4
92914.1
90910.6
88438.4
85899.1
83623
81816.7
80579.9
79954.1
92866.9
93099.6
93520.2
94028.4
94451
94597.7
94135
92881.6
90873.9
88429.4
85903.3
83624.5
81810.8
80568.7
79940.5
92856.3
93090.7
93513.9
94023.4
94442.2
94580.6
94107.7
92855.5
90859.7
88422
85909.2
83628.4
81806.1
80557.9
79927.1
92843.7
93079.5
93505
94015
94428.1
94568.3
94089
92834.8
90845.6
88421.9
85924.1
83632.6
81799.4
80546.3
79913.2
92827.5
93063.7
93489.8
94001.2
94413.8
94551
94066.1
92759.8
90814
88402.8
85913.1
83621.4
81785.4
80531.3
79897.3
92807.2
93043
93468.7
93978.9
94391.8
94532.7
94053.4
92799.5
90810.7
88388.3
85890.6
83598.9
81765.5
80512.3
79879.2
92783.2
93017.8
93441.2
93951.2
94370.7
94509.5
94037.4
92786
90791
88353.4
85840.8
83560.3
81738
80489.8
79859
92757
92989.9
93410.9
93919.7
94343
94491
94029.2
92777
90770.3
88326.4
85800.7
83522
81708.3
80466.1
79837.9
92730
92961.4
93380.2
93888.7
94316
94481.4
94025.3
92773.5
90771.1
88300
85761.2
83485.2
81679
80442
79816.2
92703.8
92934
93350.9
93858.8
94289
94463.8
94015
92767.1
90755.4
88272.3
85725.4
83451.9
81651.3
80418.5
79794.6
92679.3
92908.7
93324.3
93831.4
94262.6
94441.9
93997
92748.2
90732.1
88243.2
85693.6
83422.7
81626
80396
79773.4
92657.1
92886.1
93301.1
93807.8
94239.4
94420.8
93977.7
92728.7
90710.7
88218.9
85668.3
83398.5
81603.6
80374.9
79752.9
92416
92758.4
93411.4
94297.2
95232.5
95980.4
95992.5
94629.4
91972.5
88604.8
85311.9
82567
80507.5
79145.3
78469.2
92399.6
92742.8
93397.4
94284.8
95220.5
95966
95973.7
94611.8
91958.8
88596
85303.3
82554.7
80491.8
79127.6
78450.7
92386.3
92731.2
93389.2
94280.5
95216.9
95956.5
95951.4
94596
91949.7
88602
85310
82551.6
80480.3
79111.8
78433.1
92375.4
92723.1
93386.3
94283
95220.1
95942.4
95910.7
94569.8
91913.5
88607.1
85332.7
82558.8
80472.8
79097.3
78416.1
92366.1
92717.5
93387.6
94290.1
95219.7
95903.5
95811.5
94458.3
91832.8
88622.7
85360.6
82571.7
80468.8
79084
78399.5
92356.7
92712.4
93390.6
94297.5
95227
95876.6
95770.4
94432.1
91822.1
88633.8
85408
82591.7
80466.2
79071.6
78383.2
92345
92703.5
93386.4
94305.4
95216.8
95875
95743.9
94403.8
91806.8
88638.8
85516.8
82614.9
80465.5
79059.3
78367.1
92329.4
92689.6
93373.9
94296.2
95211.6
95877.2
95760.8
94318.6
91778.3
88621.1
85507.3
82605.5
80453
79045.1
78351.1
92308.5
92667.1
93350.1
94269.5
95180.6
95839.6
95709.1
94370.1
91772.9
88605.4
85483.5
82581.5
80431.9
79025.6
78333.5
92283.8
92639.7
93318.3
94225.7
95156.2
95806.1
95700.5
94363.1
91754.4
88566.4
85341.2
82525
80399.3
79004.7
78316.2
92256.4
92608
93278.6
94181.9
95112.3
95797.3
95706.9
94355.4
91731.6
88521.9
85260.1
82471.2
80368.1
78983.1
78298.4
92228.6
92576.6
93240.5
94138.1
95076.6
95799.7
95770.2
94431.4
91777
88471.4
85197.6
82423.6
80337.3
78961.6
78280.2
92201.9
92547.3
93206
94098.4
95036.4
95777.6
95774.7
94421.6
91777.1
88430.6
85139.3
82380.8
80309.2
78940.3
78261.5
92177.2
92520.8
93176.2
94064.8
95002.3
95749.5
95759.8
94400.4
91749.4
88388
85095.9
82347.3
80284
78919.4
78242.2
92154.9
92497.7
93151.7
94038.8
94975.9
95725.5
95740.2
94379.7
91725.1
88358.9
85066.6
82321.6
80261.8
78899.1
78222.8
91474.2
91983.2
92995.6
94487.6
96325.2
98182.3
99420.5
97850.7
93777.4
88576
84014.8
80590.5
78199
76685.8
75955
91457.3
91967.6
92982.8
94478.4
96318.7
98173.7
99397.5
97835.9
93765.4
88574.4
84010.9
80578.4
78181.6
76666.3
75934.7
91443.1
91956.4
92978.1
94484
96331.6
98179.1
99381.5
97838.2
93789
88616
84033.8
80576.7
78167
76646.8
75913.6
91431.2
91949.3
92982.6
94507.2
96361.2
98206.7
99218.4
97844.4
93722.3
88726.3
84107.1
80590.1
78155.1
76627
75891.3
91421.1
91945.9
92994.4
94536.4
96407.4
98152.8
98320.9
97405.3
94341.2
88832.3
84189.3
80618.1
78145
76605.7
75867.5
91411.5
91944.7
93017
94602.3
96464.4
97303.9
98206.7
97365.1
94365.1
89995.1
84339.8
80659.6
78140.8
76584.8
75843.9
91399.2
91939.8
93025.2
94632.1
95796.7
97335
98164.2
97312.5
94321.7
90009.2
85558.7
80681.8
78132
76565.8
75821.4
91383.2
91928.3
93019.9
94628.8
95777.5
97346.3
98181
97199.3
94298
90004.6
85521
80672.1
78130.1
76555
75803.6
91362.8
91903.4
92988.9
94596.4
95753.4
97313.9
98135
97258.7
94287.7
89982.3
85511
80648.7
78098.3
76532.4
75788.7
91338.9
91872.4
92945.2
94531.2
96393.8
97244.5
98116.8
97269.9
94271.4
89953.8
84276.2
80595.3
78076.3
76520
75778.5
91311.7
91836.8
92885.9
94428.7
96301.1
98048
98204.7
97294.7
94265.6
88734.9
84092.4
80520.8
78047.1
76507.2
75768.8
91284.8
91803.3
92837.5
94363.2
96218.8
98065.4
99081.6
97710.5
93591.2
88596.1
83977
80459.2
78023.3
76494.6
75758.5
91259.3
91773
92795.6
94302.8
96152.3
98002.6
99207.3
97667.7
93620.6
88450.1
83868.5
80410.8
78000.1
76479.2
75745.6
91235.4
91746.2
92762.4
94259.5
96102
97959.6
99186.7
97629.2
93562.3
88373
83809.7
80376.4
77978.6
76462.3
75730.3
91213.7
91723.2
92736.7
94230.2
96070
97929.9
99171.5
97605.9
93536
88336.9
83776
80350.9
77958.2
76444.1
75712.8
89885.5
90578.4
92007.6
94263.6
97411.1
101385
105547
103331
96536.5
87703.9
81340.5
77306.6
74711.4
73151.1
72424.7
89866.5
90560.9
91993.8
94256.3
97411.3
101388
105530
103322
96547.1
87722.1
81340.5
77289.8
74689.1
73128.1
72401.7
89848.4
90546.7
91988.3
94268.5
97451.7
101430
105538
103329
96604
87778.2
81363.7
77275
74663.5
73101.2
72374.7
89830.9
90535.7
91995.5
94332
97612
101581
103176
103401
98063.1
88277.1
81541.1
77288.3
74635.6
73070.1
72343.2
89813.3
90525.8
92014
94395.7
97728.1
100019
103164
103317
98137.1
90392.6
81673
77287.3
74598.6
73028.3
72305.5
89797.8
90527.2
92064.6
94606.1
96834.2
100192
103186
103178
98074.2
90564.5
83804.8
77350.8
74555.2
72992.8
72268.4
89777.6
90508.5
92049.8
93986.4
96870.8
100286
102174
102407
98290.9
91493.8
83988.6
79167.5
74471.6
72938.3
72228.5
89762.7
90500.9
92103
93966.4
96895
100301
102186
102369
98300.8
91527.3
84055.9
79211.7
74572.4
72918.3
72213.6
89741
90472
92013.3
93935.1
96866
100275
102147
102362
98259.1
91507.3
84022.7
79185
74438.8
72906.5
72197.3
89725.7
90455.5
91993.6
94535.9
96762.9
100157
102163
102359
98237.5
90550.2
83821.3
77289.8
74494
72930.8
72205
89704.1
90416.9
91905.8
94288.8
97622.8
99963.6
103048
103093
97961.4
90417.5
81581.7
77194.8
74504.7
72932.7
72210
89684.9
90390.2
91851.1
94189.2
97471.5
101443
103009
103251
98031.1
88155.7
81418.3
77163.6
74508.9
72942.3
72214.4
89665
90363.8
91806.6
94088.4
97273.7
101256
105367
103184
96444.3
87622
81206.7
77116
74502.4
72938.6
72211.4
89645.1
90340.2
91774.4
94038.8
97196.3
101176
105322
103129
96352.4
87531.5
81148.8
77095.7
74492.7
72929.9
72202.5
89625.6
90319.1
91749.7
94007.5
97157.7
101136
105302
103095
96303.9
87475.9
81111.4
77075
74477.4
72915.4
72188
87382.7
88214.5
89990.4
92983.2
97653.9
104928
110984
117195
104527
83848.8
76115.8
72166
69764
68432.6
67847.6
87359.4
88192.2
89971.4
92972.9
97660.9
104937
110977
117180
104517
83853.8
76101.7
72134.5
69733.4
68405.6
67821.8
87332.2
88167.5
89952.1
92960.5
97679.7
104987
110977
117159
104480
83800.3
76044.1
72064.3
69683.3
68366.4
67787.6
87301.7
88144.7
89948.8
93020.8
98068.3
102816
111107
117234
104382
88035.6
76128.9
71936.5
69619
68319.8
67745
87263.5
88104.4
89918
93083.7
96814.9
103086
111389
114671
105532
88745.3
79327
71806.7
69465.9
68236.5
67688.1
87232
88070.2
89969.5
92681.4
96947.7
102157
109543
113574
105533
90920.3
79435.4
74187.4
69331.3
68139.4
67627.3
87194.9
88022.3
89953.6
92717.7
97095.1
102164
108599
113493
105905
91815
81100.6
74202.8
69202
68046.9
67569.3
87164.5
87976.4
89975.3
92770.9
96433.5
101661
108606
113449
105849
91795.9
81067.5
74197.9
71173
67970.1
67539.1
87158.1
87986.4
89919
92723.1
96410
102124
108589
113433
105837
91787.2
81055.7
74147.5
69175.7
68017.5
67538.9
87160.5
87999.1
89898.5
92600.1
97002.5
102117
108527
113451
105868
91789.7
81093.2
74171.3
69270.9
68079.4
67566.9
87154.3
87995.6
89810.2
92978
96718.3
103080
109358
114476
105452
90743.3
79360.4
71722
69378.1
68146.2
67596.6
87156.1
87999.7
89805.4
92878.9
97928.9
102728
111015
117110
104247
88071
76016.3
71819.7
69498.1
68196.6
67621
87149
87985
89771.2
92781.8
97503
104813
110830
116985
104312
83661.1
75899.5
71915
69529.5
68210.5
67630.1
87138.3
87972
89752.8
92756.6
97447.3
104727
110769
116979
104341
83681.1
75923.3
71950.8
69545.4
68214.2
67628.8
87123.2
87955.7
89733.3
92728.4
97401.8
104680
110746
116965
104313
83640.8
75900.8
71945.3
69538.4
68204.1
67617.4
83718
84547.5
86363.4
89575.2
94874
102006
118821
149559
110206
77268.2
66302.7
64354.8
63113
62536.2
62302.3
83688.8
84518
86333.6
89546.2
94853.5
101991
118789
149534
110189
77241.7
66248.8
64295.9
63075.1
62507.2
62276.4
83646.5
84470.4
86278.4
89465
94738.4
101973
118707
149478
110146
77193.7
66101.4
64181.7
63005.3
62459.5
62240.1
83593.7
84413.2
86214.3
89260.3
94133.8
102364
118718
149320
109878
77194.3
69556.7
63808.6
62889.9
62388.8
62191.6
83516.5
84311.3
86016.5
89332.1
94156.5
101473
115828
149190
110601
80866.7
69184.1
66078.8
62599.8
62277.8
62122.3
83435.2
84150.5
86527.9
89396.9
93903
101446
114405
144151
115005
82723.1
71336.8
65858.5
64385.5
62110.5
62045.6
83388.4
84097.8
86520
89391.1
93917.1
101015
114297
144036
114920
82666.4
72506.8
67412.7
64293.1
62053.7
61998.5
83332.9
84044.4
86567.5
89401.2
93904.3
100977
114243
143981
114896
82642.5
72462.9
67367.2
64277.1
62039.7
61943.5
83349.6
84059.2
86499.6
89402.1
93908.4
100962
114227
143967
114883
82631.6
72456.7
67369
64227.2
62026.2
61968.6
83365.1
84081.4
86477.9
89310.3
93878.2
100964
114252
143995
114888
82632.8
72470
67390.2
64293.1
62054
61988.4
83406.8
84201.7
85909.2
89233.9
94062.7
101399
114337
144087
114954
82668.9
71415.1
65896.1
62517.7
62192.2
62035.1
83448
84268.2
86071.4
89118.8
93893.9
102152
115760
149092
109861
81051
69346
63700.1
62776.8
62272.3
62073.1
83462.9
84287.8
86098.1
89288.4
94563.9
101821
118544
149230
109983
77087.1
65973.2
64043.7
62861.1
62310.5
62088.8
83467.8
84298.1
86115.7
89330.9
94641.5
101802
118564
149309
110028
77110.3
66087.5
64124.7
62896.2
62323.4
62090.2
83458.4
84289
86107
89321.7
94623.6
101757
118571
149318
110025
77077.1
66106.3
64147.5
62897.6
62315.6
62079.1
78789.6
79372.7
80625
82790.2
86133.9
93111.7
100617
97571.6
22598.2
48608.8
52040.2
53944.4
55094.1
55817.3
56132.9
78756.9
79338.6
80587.4
82744.5
86093.7
93065.1
100577
97458.2
22675.5
48583
51946.9
53891.7
55068.2
55796.1
56114.6
78703.1
79272.7
80512.9
82681.1
85980.9
92969.5
100485
97376.7
22535.7
48563.4
51837.6
53849.2
55032.1
55768.6
56095.2
78629.7
79172.3
80397
82408.6
87244.8
92575.4
100240
97253.2
22982.7
48614.1
53443.7
53885.6
54992.1
55727.1
56073.9
78520.3
79023
80145
83573.1
87020.6
93001.3
101058
97133.2
22850.5
51864.6
54974.4
55378.6
54967.3
55694.2
56043
78389.3
78865.3
81382.7
83457.3
87479.8
93233.4
100867
96927.7
23076.6
52126.7
55887.3
55409.3
56321.6
55706.7
56011.8
78335.7
78796.3
81370.2
83371.3
87714.4
93158.8
100755
96808.5
23119.1
52153.2
55963.2
56437.6
56261.2
55730.1
56013.9
78296.3
78744.4
81322.2
83998.5
87699.5
93114.3
100695
96700.3
23154.2
52153.5
55977.6
57000.3
56277.8
55747.8
55990.6
78299.2
78759.7
81305.4
83972.2
87683.3
93099.1
100680
96701.4
23135.1
52145.1
55966.9
56986.9
56225.7
55704.1
55985.9
78317.6
78793.1
81326
83326.4
87660.3
93113.2
100711
96763.5
23124.1
52127.5
55929.2
56400.2
56220.8
55652.3
55957
78410.7
78914.9
80040.4
83420.3
87410.7
93155.9
100797
96861.5
23031.8
52074.3
55812.3
55257.6
54889.9
55613.2
55959.7
78483.1
79026.8
80252.2
82267.9
87030.9
92165.4
99856.6
97065.5
22795.9
50280.5
53220
53786.8
54887.4
55616.6
55960.5
78519.3
79090.3
80333.5
82507.6
85809
92605.5
100168
97106.5
23048.7
48466.7
51726.5
53724.8
54896.9
55626.3
55949.9
78535.2
79118.1
80369.8
82529.7
85885
92831.6
100320
97189.6
22527.3
48474.6
51807
53733.4
54898.8
55619.8
55934.8
78529.7
79114.5
80369.4
82538.9
85887.3
92857.7
100356
97226.5
22445.8
48464.7
51865.9
53750.9
54888.7
55604.4
55916.5
72810.1
72922.2
73116.8
73382.6
73993
78637.1
82717.9
95925.5
2558.66
27894.7
38283.2
43687.8
47164.7
49165.7
50045.7
72780.2
72890.5
73084.9
73350.7
73983.1
78595.7
82676.6
95745.5
2597.23
27873.1
38218
43688.4
47168.8
49163.6
50044.2
72735.4
72838
73031.4
73341.2
73966.9
78504.5
82587.8
95661.5
2600.62
27910
38218.8
43726
47196.4
49186.8
50062.4
72677.1
72754
72957.3
73407.6
76673
78439.1
82379.8
95547.7
2732.68
28095.6
38888.8
44034.7
47297
49244.6
50107.8
72593.4
72643.3
72904.8
75421.6
76741.5
80217.8
83403.9
95567.7
2286.28
28327.3
39710.7
45132.9
47525.1
49352.6
50172.7
72495.5
72607.7
74597.1
75363.6
77987.3
80998.1
83270
95242.7
2286.61
28577.7
40141.5
45243.3
48463
49532.3
50245.4
72459
72564.8
74547.3
75311.3
78614.1
80898.7
83181.2
95185.4
2290.3
28625.6
40218.3
45738.5
48494.4
49598.2
50293.1
72428.7
72525.1
74485.4
76370.4
78556.3
80845.4
83132.8
95104
2288.63
28624.6
40242.9
46004.5
48529.5
49624.9
50290.4
72422.7
72528.8
74468
76339.5
78541.8
80831.3
83118.5
95117
2287.94
28621.8
40233.6
45992.9
48499.2
49572.6
50266.4
72422.1
72534.4
74487.5
75285.1
78554.2
80857.4
83139.7
95138.1
2290.05
28606.5
40187.5
45714.6
48432.3
49479.6
50192.6
72482.7
72534
72797.7
75281
77943
80937.6
83200.9
95167.5
2284.45
28535.6
40067.6
45090.3
47453
49275.6
50092.4
72529.4
72608
72815.6
73271.8
76628.3
78449.3
82429.5
95480.7
2282.44
28257.9
39007.9
43945.8
47199.2
49138.5
49998.3
72550.1
72654.4
72850.8
73164.6
73800.4
78314.8
82322.9
95398.9
2703
27876.8
38119.5
43612.4
47068
49049.8
49921.9
72556.9
72669.1
72868
73141.1
73781.3
78364.6
82428.9
95481.4
2651.41
27788.1
38090.8
43541
47007.5
48993.3
49869.3
72548.3
72662.7
72861.9
73134.7
73753.7
78394.2
82467.6
95524.3
2591.78
27770.9
38122.3
43506.5
46967.9
48959
49834.6
66394.3
65986
65131.3
63775
64291.5
64428.4
67855.4
2354.75
20358.4
30319.8
36630.4
41064.2
43727.4
44959.2
66374.5
65965.4
65112.5
63758.1
64271.6
64400.1
67823.6
2358.78
20328.7
30300.6
36675.1
41090
43744.5
44974.3
66355.2
65946.8
65089.1
63745.6
64341.1
64396.7
67762.1
2378.92
20105.5
30340.5
36722
41151.6
43805.5
45025.8
66344.1
65930.5
65065.1
63883.2
64776.4
64345.9
67593.5
4026.48
20190.5
30198.4
37046.3
41302.4
43931.1
45122.4
66337.3
65919.9
65205.6
66089.6
65252.3
66346.5
68179.2
2335.83
18450
30106.6
37353.6
41512.4
44105.8
45251.7
66323.2
66028.3
66932.7
66265.9
66670.9
67264.5
68094
2324.87
18453.7
30068.8
37497.8
41981
44256.6
45392
66323
66041.9
66856.7
66317.6
67444.3
67269.3
68062.8
2397.63
18493
30141.6
37616.4
42067.1
44325.7
45451
66301.3
66023.7
66818
67290
67481.4
67257.7
68042.1
2451.24
18476.9
30164.7
37682.7
42059.7
44354
45455.8
66285.5
66005.2
66789.7
67279.4
67466.2
67242.6
68029.1
2359.3
18477.6
30157.7
37670.5
42038.5
44299.3
45426
66247.7
65954
66790.9
66275.9
67392.8
67223.8
68023.8
2394.9
18481.1
30115.6
37575.6
42005.1
44209.9
45342.8
66223.6
65807.4
65094.4
65985.3
66565.8
67188.8
68027.5
2323.91
18422.1
30021.6
37357.9
41443
44029.6
45171.9
66193.5
65781.9
64922.6
63748.5
64796
64357.9
67270.8
2333.29
19010.3
30248.1
36963.2
41208.5
43826.8
45014.6
66166.2
65760.2
64906.9
63570.7
64260.4
64226.9
67536.5
5832.7
20018.8
30251.4
36612.9
41025.7
43671.1
44887
66147.3
65741
64894.2
63549.8
64152.2
64228.4
67618.7
2403.38
20199.4
30183.5
36536.5
40933.9
43577.4
44802.1
66128.6
65723.5
64875.3
63528.4
64042.8
64203.1
67634.9
2353.88
20254.7
30171.1
36457.5
40872.2
43524.3
44750.7
60353.9
59462.2
57606.5
54440.2
53177.8
48072.1
45668.6
2304.27
2295.03
18069.6
26581.6
32961.8
37458
40232.8
41567.1
60342.9
59450.1
57591.9
54425.1
53155.6
48045
45645.8
2297.44
2294.51
18108.8
26598.9
33016.8
37488
40259.3
41590.5
60342.8
59453.6
57586
54379.8
53150
48016.1
45624.2
2296.4
2294.98
15301.9
26633
33083.8
37556.9
40329.1
41652.8
60363.4
59481.1
57549.6
54422.6
53175.2
47983.7
45638.8
2295.65
2301.47
15683.7
25417.1
33238.2
37687.6
40462.2
41759.4
60416
59530.1
57679.9
57062
53373.2
50543.4
47444.3
3043.02
2266.58
14058.9
24878.4
32741.6
37850.6
40631.2
41891.2
60465.6
59693.7
59495.7
57197.7
55075.2
51748.2
47584.8
3091.16
2252.91
14095.8
24641.9
32876.4
37722.6
40737.6
42034.5
60486.6
59712.9
59486.1
57193.8
55874.7
51793.9
47625.7
3078.25
2230.37
14134.1
24732.9
32593.3
37835.8
40789.5
42090.9
60470.8
59712
59467.4
58320.2
55928.5
51808.3
47628.9
2811.14
2298.14
14154.1
24770.9
32454.5
37866.3
40814.8
42099.7
60447.3
59676.1
59442.2
58318
55912.7
51794.2
47621.4
2836.28
2264.09
14154.5
24767.3
32444.7
37842.6
40765.2
42066.2
60387.5
59616.8
59428.1
57153.8
55847.3
51750.8
47600.2
3089.32
2246.4
14134.3
24715.4
32557.1
37771.9
40688.5
41982.8
60296.9
59412.5
57567.9
56990.3
54980.5
51665.6
47527.2
3109.7
2235.15
14083.4
24612.6
32747
37783.8
40555.9
41812
60206.8
59327.5
57403.5
54288
53035.2
47952.2
45652.6
3002.41
2268.32
14587.4
25455.2
33163.9
37595.5
40358.8
41651.8
60147
59261.4
57399.4
54209.3
52965.2
47868.4
45529.3
2295.86
2294.15
15419.1
26550.5
32974.8
37432.4
40194.8
41513.1
60108.4
59219.3
57371.6
54220.1
52978.3
47876.7
45505.7
2296.43
2294.71
18047.4
26490.2
32878.3
37330.8
40091.3
41417
60080.9
59193.5
57346.5
54197.4
52948
47877.3
45500
2298.48
2295.58
17960.1
26442.6
32790.3
37265.5
40028.6
41357.1
55416.8
54093.1
51311
46425.5
38231.9
31723.5
12929.4
2293.98
2301.71
17989.6
25252.2
31674.2
36049.7
38751.4
40067.5
55407.8
54083.6
51294.7
46407.6
38208.6
31687.3
12905.7
2293.38
2301.59
18034.3
25305.9
31735.1
36081.3
38783.4
40093.3
55412.2
54091.7
51292.8
46376.9
38140.2
31439.1
12843
2293.67
2300.87
15445.2
25487.8
31832.1
36155.3
38855.6
40156.4
55433.2
54132.3
51257.8
46415.9
42604.7
31356.4
12943.4
2299.89
2304.78
14796.7
23518
31922.2
36289.4
38980.8
40258.9
55492.4
54199
51312.6
49341.3
42679.9
34943.8
18912.2
2272.96
2314.26
12448.5
22756
30772.8
36454.8
39155.3
40382.3
55563.1
54266.2
53372.4
49339.3
44835.5
36683.9
19881.3
2271.97
2296.71
12672.4
22462.8
30943.8
35752
39268
40522.1
55576.5
54277.7
53380.3
49254.9
45764.1
36748.6
19958.1
2270.5
2300.13
12966.3
22642.5
30399.8
35872.9
39328.4
40580.2
55562.1
54275.8
53370.8
50705.8
45724.7
36769.6
19976.7
2268.36
2324
12841.4
22722.8
30124.2
35926.3
39353.9
40594.6
55536.2
54237.1
53348.7
50698.1
45707.4
36756.8
19972.4
2268.49
2318.3
12898.1
22726.3
30116
35904.4
39303.6
40553.9
55483.8
54184.4
53330.8
49212.8
45724.4
36709.4
19950
2270.47
2302.93
13030.9
22640.2
30367.3
35807.7
39216.4
40467.3
55363.5
54075.6
51196.7
49351.3
44749.1
36610.1
19838.7
2271.78
2292.37
12699
22451.4
30812.2
36386.5
39077.1
40300.4
55265.8
53968.5
51094.3
46271.9
42553.9
31517.4
14549.4
2270.76
2329.87
13122.6
23598.1
31845.8
36193.4
38874.1
40147.3
55205.6
53889.2
51102.1
46197.9
37990.2
31368
12855.7
2298.53
2301.68
15255.6
25413.3
31722.6
36028.2
38716.7
40011.7
55161.2
53841.2
51061.4
46192.1
38029.6
31468.4
12812
2294.11
2301.42
17962.2
25202.2
31591.1
35919.7
38609.9
39914
55130.4
53811.2
51038.9
46172.5
38020.8
31548.4
12844.7
2292.82
2301.5
17896.7
25126.4
31496.9
35852.4
38541.4
39851.3
52202
50651.5
47400.1
41955.3
33238.8
24641.5
2349.57
2292.56
2299.06
16284.7
25810.3
32372.8
36532
39098.9
40336.6
52190.3
50641.6
47382.8
41935.8
33297
24634.1
2354.97
2293.61
2299.75
16414
25912.2
32437.7
36575.4
39137.3
40364.4
52191.7
50649.2
47375.9
41877.7
33409.1
24757.8
2816.24
2296.95
2301.3
14616.3
26540.2
32586.5
36682.8
39222.9
40432.7
52207.1
50700.5
47419.8
42010.8
36556
24637.5
3997.65
2291.21
2322.44
14570
23987.6
32776.1
36859.6
39354.2
40542.2
52255.5
50784.1
47553.7
44304.5
36653.2
27075.9
12115.1
2270.97
2290.06
12663.6
23167
31219.9
37097.8
39558.7
40675.7
52320.1
50836.7
49140.6
44394.8
38364.8
28268.6
12310.6
2273.46
2273.6
13128.6
22981.5
31522.5
35993.9
39713.9
40826.5
52325.5
50839.5
49218.2
44405.9
39147.6
28355.4
12382.5
2272.53
2283.62
13632.1
23383
30835.7
36145.9
39800.2
40894.5
52310.9
50831.4
49232.4
45555.8
39131.5
28389.1
12401.3
2269.63
2332.05
13834.3
23615
30495.3
36226.4
39831.1
40915.4
52280.5
50794.8
49210.1
45536.8
39110.9
28374
12396.6
2269.69
2327.47
13890.8
23614.4
30483.4
36199.7
39773
40865.6
52229.5
50745.6
49161.9
44337.5
39091.8
28308.8
12365.2
2272.56
2281.13
13718.8
23377.7
30789.7
36067.9
39656.9
40767.4
52119.8
50649.6
47422.3
44333.8
38256.8
28192.3
12267.6
2273.09
2272.65
13161.5
22967.2
31337.7
37024.5
39474.2
40587.5
52027.2
50522.9
47246.8
41847.2
36470.7
24879.6
11756.7
2268.51
2315.89
13390.3
24161.4
32690.3
36755.5
39239.2
40422.3
51968.5
50427.7
47159.5
41671.6
33226.3
24765.2
3940.2
2298.47
2303.2
14848.5
26451.6
32469.6
36546.6
39074
40278.4
51924.7
50378.1
47125.2
41688.4
33094.7
24447
2371.71
2293.99
2299.71
16381.3
25811
32283.9
36403.8
38952.4
40174.4
51895.7
50347.5
47102.8
41668
33005.6
24418.7
2346.54
2292.82
2298.88
16208.8
25673.9
32182.9
36323.7
38876.9
40109.1
51124.4
49690.3
46668
41906.5
33425.4
23288
2293.74
2301.79
2301.76
20525.8
29339.2
35212.6
38884.9
41125.8
42184
51106.5
49674.9
46652.2
41861.9
33503.5
23215
2293.68
2300.26
2303.17
20688
29396.8
35268.2
38935.3
41164.3
42211.7
51100.4
49671.4
46647.8
41666.4
34545.6
23526.2
4670.87
2296.84
2305.25
16881.7
30143.9
35488.8
39081
41263
42284.7
51111.8
49712.1
46703.1
41772.4
35781.7
23901.2
5525.7
2296.59
2237.01
16898.8
26948.4
35843.4
39294.1
41403.5
42403.7
51157.2
49800.8
46850.9
43044.4
35669.1
25665.5
11196.6
2269.32
2293
15320.1
26241.7
33992.2
39624.9
41632.4
42552.9
51219.3
49868.1
47699.5
43081
36689.1
26449.7
11323.5
2274.65
2346.51
19186.4
26542.6
34480.7
38243.5
41841.1
42715.4
51220.8
49874.3
47747.4
43113.2
37184.7
26554.9
11415.2
2281.14
2302.06
19388.5
27562.2
33771.9
38447.2
41949.4
42792.5
51207.9
49863.6
47768.8
43806.9
37189.3
26609.9
11461.2
2279.04
2275.68
20555
28211.1
33469.5
38556.4
41984.4
42817.9
51170.8
49824.6
47747.6
43781.6
37164
26588.2
11450.3
2279.18
2273.69
20521.3
28172.9
33444
38517.4
41918
42760.5
51119.5
49767.5
47670.9
43036.3
37114.1
26489.9
11381.5
2280.26
2333.23
19692.5
27488.3
33683.4
38344.4
41776.1
42650.1
51008.3
49651
46700.9
43002.8
36557.9
26352.3
11265.5
2273.32
2424.54
19102.3
26452.6
34207.5
39540.9
41538
42455.7
50914.3
49513.4
46503.1
41569.8
35561.5
24212.4
10530.4
2267.03
2294.48
15941.8
27323.9
35738.9
39174.7
41275.4
42272
50855.4
49424
46397.4
41413
34300.8
23954.1
6092.52
2303.41
2305.02
17032.8
30020.7
35349.4
38925.6
41098.7
42116.8
50816.4
49382
46356.7
41561.4
33217.8
22993.1
2293.6
2300.32
2303.1
20594.7
29257.1
35087.3
38742.9
40962.2
42006.5
50792
49354.9
46330
41561.2
33100.3
23030.5
2293.63
2302.53
2301.57
20369.6
29156
34991.6
38653.8
40885.3
41940.5
52132.4
51074.4
48787
45374.3
38607.6
31949.2
2329.1
12941.8
3526.16
31181.9
35868.8
40515.7
43067.6
44644
45379.6
52102.7
51039.8
48748.1
45244.1
38463.5
31344.9
2322.74
11852.2
5939.4
31174
35896.7
40528.3
43096.2
44665.6
45397.7
52079.6
51009.5
48746.7
44934.5
39845
29187.4
9461.3
5685.3
2305.83
24401.5
36957.4
40663.8
43233.7
44752.6
45459.4
52074.1
51013.4
48747.7
45086.4
39238.1
28934.2
10951.3
3586.96
2345.51
24084.1
33238
41083.3
43413.5
44879.8
45567.1
52105.4
51077.2
48877.5
45204.9
39285.2
29916
14549.1
2265.9
2286.9
20033
32184.5
39032
43781.2
45104.2
45713.4
52154.9
51142.9
48909
45266.1
39644.7
30449
14808.8
2273.75
7316.02
23259.3
32382
39547.3
42226.4
45336.1
45878
52149.2
51149.1
48948.5
45336.7
39841.7
30695.1
15078
2263.56
20957.5
31666.6
33938.5
38742.7
42430.6
45444.3
45951.7
52137
51138.5
48969.6
45483.1
39881.1
30808.4
15197.2
2261.67
27121.1
34861.3
34917.1
38440.8
42563.8
45477.1
45975.6
52095.1
51094.4
48945.6
45453.7
39847.8
30771.7
15165.6
2261.5
25921.1
34389.3
34803.3
38399.3
42512.7
45408.4
45916
52046.6
51033.1
48861.7
45235.2
39747
30584.1
14995.7
2265.05
18593
30218.4
33665.2
38615
42305.6
45263.3
45805.4
51942.8
50910.9
48703.2
45139
39457.2
30274.5
14665.5
2274.07
4745.27
22064.9
32145.8
39246
43676.6
44996.4
45605.2
51858.1
50791.9
48515
44832.9
39009.2
29116.6
13834.7
2264.98
2293.03
21396.8
33626.8
40943.5
43270.7
44734.8
45421.2
51812
50734.1
48456.5
44615.9
39491.7
29074.7
11686
6787.42
2308.59
24592.5
36783
40486
43051.1
44568.6
45274.9
51787
50714.7
48406.5
44870
38057
30861.6
2318.53
11489.4
5832.05
30999.8
35686.5
40300.3
42873.9
44441.7
45174.1
51772.6
50704
48398.2
44946.6
38143.2
31395.6
2322.53
12583.3
3143.75
30924.9
35602.9
40242.7
42804.6
44380.5
45116.7
54701.1
54167.4
52977.8
51967.1
49218.4
53729.3
64516.2
49898.6
61941.5
52455.7
46979.6
48357
48691.6
49268.3
49546.5
54651.8
54094.9
52884.3
51700
48679.4
52281.8
61114.4
48150.1
60222.4
51475.2
46730.9
48223.2
48661.5
49251.9
49542.2
54598.6
54008.7
52829.1
50855.4
49129.3
42831.4
38231
32966.6
37817.2
41979.7
46935.6
47786.7
48701.1
49275
49566.5
54558.2
53963.8
52739.7
50969.7
46549.6
41458.5
34418.2
17325.5
17849.4
40441.4
43684
47986.9
48765.5
49347.2
49627.9
54558.4
53996.3
52822.5
50009.9
46982.1
41144.7
30444.2
8802.3
23557.2
36293.6
42582.4
46187.5
48998.1
49514.2
49732.3
54584.5
54025.2
52108.1
50126.4
46590.8
41320.5
32675.6
21058.3
2241.04
33218.4
41835.2
46539.1
47531.8
49648.1
49863.6
54563.7
54015.4
52082.7
50261.7
46483.1
41784.6
33687.5
29339.1
2286.47
31571
42166
45583.5
47700.6
49712.5
49909.6
54548.3
54001.2
52094.4
49815.7
46549.8
41955.1
34058.2
26273.2
2260.11
32601.1
42563.6
45074.3
47793.1
49733.3
49924.4
54506.4
53956.7
52068.2
49784.1
46508.2
41901.2
33983
26940.1
2263.17
32463.7
42500.5
45037.2
47748.5
49673.4
49870.8
54469.5
53907.4
51995.7
50136.2
46363
41612.9
33472.5
28714.1
2278.05
31522.2
42056.8
45486.4
47589.5
49568.8
49784.7
54385.5
53817.5
52629.9
49888.8
46333
41028.3
32212.4
21309.3
1813.52
34003.1
41723.8
46271
48876.5
49394.3
49614
54328.3
53724.9
52481.7
50675.7
46397.7
41576.8
29856.8
2629.8
22333.3
37636.6
43929
47809.2
48599.7
49185.9
49468.5
54313.7
53711.3
52504.5
50474.9
48650.6
41500
36133.2
30922.5
35680.9
40493.7
46676.4
47560.8
48490.8
49071.6
49366
54316.2
53743.5
52499.4
51235.7
48066.9
51175.7
57958.5
46927.4
59725
51077.3
46406.2
47943.2
48408.7
49006
49300.8
54319.9
53768
52540.1
51434.2
48513.9
52448.1
61118.9
48327.7
61364
52003
46595.3
48032.4
48397.5
48981.7
49265
58065.1
58059
57885.9
59061.6
59632.4
63486
79581.6
72294.1
80563.5
62471
57899.7
56241.6
54603.6
54287.7
54098.8
57997.2
57954.1
57767.1
58827.3
59131.7
63224.9
78776.2
71668.6
78919.9
62091.9
57567.3
56103.1
54536.9
54233.9
54069.3
57906.9
57779.6
57647.8
57525.5
58487
58553.5
66036.1
72095.9
69878.5
59251.5
56791.6
55178.4
54462.3
54145.2
54039.1
57818.7
57674.1
57463.8
57490.4
55628.5
57055.3
62567.9
69777.7
67170
58854.4
55145.5
55031.9
54365.1
54118.7
54027.3
57765.8
57646.5
57378.7
55927.3
55867.3
55576.6
56923.7
66538
77425.5
60720.4
54937.2
53799.9
54363.7
54161
54044.9
57749.1
57565.6
56277.3
55941.8
55278.4
55591.7
57906.1
56273.8
95330.7
65064.9
55120.7
53869.8
53250.5
54153.5
54087.7
57703.2
57520.2
56219.1
55949.4
54908.1
55966.9
58693.6
60262.4
91927.8
63525.6
55293.4
53386.7
53328.1
54139.5
54083.9
57680.4
57495.5
56211
55288.7
54866.8
55959.5
58703.6
61706.3
92469.8
63008.2
55364.1
53178
53331
54133.1
54082.6
57644.5
57459.9
56188.6
55254.4
54826.5
55916.9
58670.7
61644.7
92236.3
63008.5
55344.2
53151.4
53315.3
54098.5
54043.2
57631.6
57444.9
56148.1
55832.5
54780.8
55808.2
58552.1
59705.1
92119.4
63841.4
55252.4
53315.7
53257.8
54070
54004.7
57589.5
57464.1
57183.2
55762
54962.5
55290
57541.1
55786.5
95283
64921
55003.4
53705.7
54234.8
54034.3
53920
57584.5
57430.9
57202.5
57197.8
55433.1
56546.7