/*--------------------------------*- C++ -*----------------------------------*\
| =========                 |                                                 |
| \\      /  F ield         | OpenFOAM: The Open Source CFD Toolbox           |
|  \\    /   O peration     | Version:  v2012                                 |
|   \\  /    A nd           | Website:  www.openfoam.com                      |
|    \\/     M anipulation  |                                                 |
\*---------------------------------------------------------------------------*/
FoamFile
{
    version     2.0;
    format      ascii;
    class       volScalarField;
    location    "0.003";
    object      p_rgh;
}
// * * * * * * * * * * * * * * * * * * * * * * * * * * * * * * * * * * * * * //

dimensions      [1 -1 -2 0 0 0 0];


internalField   nonuniform List<scalar> 
449343
(
92980.9
93159.7
93470.1
93814.6
94046.1
94000.6
93405.2
92197.8
90416.1
88256.4
86006.3
83943.8
82269.1
81102.2
80505.6
92984
93163
93473.7
93818.2
94049.2
94002.1
93405.9
92198.6
90418.3
88260.3
86011.4
83948.6
82273
81105.1
80507.9
92989.7
93169.2
93480.4
93824.9
94054.6
94004.1
93406.1
92198.9
90421.2
88267
86020.8
83958
82280.5
81110.6
80512.4
92997.6
93177.6
93489.5
93833.5
94061.1
94004.5
93404.2
92195.8
90422.2
88273.9
86033.2
83970.9
82290.9
81118.3
80518.6
93006.3
93187.1
93499.7
93843
94067.3
94002.9
93398.7
92190
90421.1
88280.9
86047.4
83986.4
82303.3
81127.4
80525.8
93014.6
93196.1
93509.4
93851.8
94073.4
94003.1
93395.2
92186.8
90422.7
88290.3
86062.8
84002.7
82316.2
81136.6
80533
93021
93203
93516.9
93859
94078
94004.8
93394.9
92185.7
90426.4
88300.4
86075.1
84017
82327
81144.3
80539.1
93024.2
93206.4
93520.6
93862.8
94080.9
94006.8
93392.4
92181.1
90422.1
88303.4
86081.4
84023.8
82332.6
81148.8
80543.1
93023.7
93205.8
93519.8
93862
94081.1
94008.3
93398.3
92189.7
90430.6
88305.5
86080.4
84022.2
82332.2
81149.4
80544.2
93019.9
93201.6
93515.1
93857.9
94080
94010.3
93403.1
92195.3
90431.8
88299.7
86072.5
84012.5
82326.1
81146.5
80542.9
93014
93195
93508
93851.8
94076.8
94013.5
93410.2
92202.4
90434.3
88294.6
86061.6
84000.7
82317.8
81141.8
80540.2
93007.3
93187.6
93500
93844.6
94073.1
94017.5
93418.5
92211.3
90438.6
88291.3
86051.1
83989.1
82309.2
81136.6
80536.9
93001.1
93180.8
93492.7
93837.9
94068.7
94019.7
93423
92217.1
90440.7
88287.4
86041.8
83979.2
82301.8
81132
80533.8
92996.4
93175.8
93487.1
93832.6
94064.7
94019.1
93424.6
92218.7
90439.6
88282.7
86034.4
83972
82296.5
81128.5
80531.4
92993.9
93173
93484.2
93829.7
94062.3
94018.4
93424.7
92218.8
90438.4
88279.8
86030.4
83968.2
82293.7
81126.7
80530.1
92781.2
93009.8
93424.1
93929.7
94360
94539.7
94094.7
92843.9
90824.3
88331.3
85780
83509.9
81715.1
80486.5
79864.6
92784.4
93013.4
93428.4
93934.4
94364.4
94542.1
94095.2
92844.6
90827.3
88337.1
85786.9
83515.7
81719.1
80489.2
79866.6
92790.4
93020.3
93436.6
93943.5
94372.6
94545.7
94095.5
92846.1
90832.8
88348.8
85801.2
83527.5
81726.9
80494.3
79870.4
92798.6
93029.7
93448
93955.7
94382.1
94546.6
94088.9
92835.6
90832.1
88359.9
85820.6
83544.5
81738.2
80501.4
79875.6
92808
93040.8
93461.4
93969.6
94392.1
94538.9
94076.1
92822.7
90815
88370.5
85844.4
83565.6
81751.9
80509.8
79881.7
92817.1
93051.5
93474.7
93984.1
94402.9
94541.4
94068.5
92816.2
90820.4
88382.8
85870
83589.2
81766.8
80518.6
79887.9
92824.1
93059.8
93485.4
93995.4
94408.5
94548.7
94069.4
92815.2
90826
88402.3
85904.4
83612.9
81779.7
80526.7
79893.5
92827.5
93063.7
93489.8
94001.2
94413.8
94551
94066.1
92759.8
90814
88402.8
85913.1
83621.4
81785.4
80531.3
79897.3
92826.8
93062.6
93488.3
93998.5
94411.4
94552.3
94073
92819.1
90830.3
88407.9
85910.2
83618.5
81785.1
80531.9
79898.8
92822.5
93057
93480.5
93990.4
94409.9
94548.7
94076.7
92825.2
90830.3
88392.6
85880.1
83599.6
81777.2
80529
79898.3
92815.8
93048.8
93469.8
93978.6
94401.8
94549.8
94088.1
92835.8
90829.1
88385.3
85859.6
83580.9
81767.1
80525
79896.7
92808.5
93039.9
93458.7
93967.2
94394.4
94559.8
94103.8
92852
90849.6
88378.5
85839.6
83563.7
81757.4
80520.5
79894.7
92801.9
93032.1
93449
93956.9
94387.1
94561.9
94113.1
92865.2
90853.5
88370.4
85823.5
83550
81749.4
80516.6
79892.7
92797
93026.4
93442
93949.1
94380.3
94559.7
94114.7
92865.9
90849.9
88360.9
85811.4
83540.4
81743.7
80513.7
79891.1
92794.4
93023.4
93438.4
93945.1
94376.7
94558.2
94115
92866.1
90848.1
88356.2
85805.6
83535.8
81740.9
80512.2
79890.2
92278.7
92621
93274.1
94159.9
95095.2
95843
95855.1
94492
91835.1
88467.4
85174.6
82429.6
80370.2
79007.9
78331.8
92281.9
92625.1
93279.7
94167.1
95102.7
95848.3
95856
94494.1
91841.1
88478.2
85185.6
82437
80374.1
79009.9
78332.9
92288.2
92633.1
93291.1
94182.4
95118.8
95858.4
95853.3
94497.9
91851.6
88503.9
85211.9
82453.5
80382.2
79013.7
78335
92296.9
92644.6
93307.8
94204.6
95141.7
95863.9
95832.2
94491.4
91835.1
88528.6
85254.3
82480.3
80394.3
79018.9
78337.6
92307.3
92658.6
93328.7
94231.3
95160.8
95844.7
95752.7
94399.4
91773.9
88563.8
85301.7
82512.8
80410
79025.2
78340.6
92317.5
92673.2
93351.4
94258.3
95187.7
95837.3
95731.2
94392.9
91782.9
88594.5
85368.8
82552.5
80426.9
79032.4
78343.9
92325.3
92683.9
93366.8
94285.8
95197.2
95855.4
95724.3
94384.2
91787.2
88619.1
85497.2
82595.2
80445.8
79039.7
78347.4
92329.4
92689.6
93373.9
94296.2
95211.6
95877.2
95760.8
94313.7
91778.3
88621.1
85507.3
82605.5
80453
79045.1
78351.1
92328.1
92686.7
93369.7
94289.1
95200.2
95859.2
95728.7
94389.7
91792.5
88625
85503.1
82601.1
80451.5
79045.2
78353.1
92323
92678.9
93357.5
94264.9
95195.4
95845.4
95739.7
94402.4
91793.6
88605.7
85380.4
82564.3
80438.6
79043.9
78355.4
92315.3
92666.9
93337.5
94240.7
95171.2
95856.2
95765.7
94414.2
91790.5
88580.8
85319
82530
80426.9
79041.9
78357.2
92307.1
92655.1
93319
94216.6
95155.1
95878.2
95848.7
94509.8
91855.4
88549.9
85276.1
82502.1
80415.8
79040.1
78358.7
92300
92645.4
93304.1
94196.5
95134.5
95875.7
95872.8
94519.7
91875.2
88528.7
85237.4
82478.9
80407.3
79038.4
78359.6
92294.9
92638.5
93293.9
94182.6
95120
95867.2
95877.5
94518.1
91867.1
88505.7
85213.6
82465
80401.7
79037.1
78360
92292.3
92635.1
93289
94176.1
95113.2
95862.9
95877.6
94517.1
91862.5
88496.2
85204
82458.9
80399.1
79036.4
78360.1
91336.9
91845.8
92858.3
94350.2
96187.8
98045
99283.2
97713.3
93640
88438.7
83877.5
80453.2
78061.7
76548.5
75817.6
91339.6
91849.9
92865
94360.7
96201
98055.9
99279.7
97718.2
93647.7
88456.7
83893.2
80460.6
78063.9
76548.6
75817
91345
91858.3
92880
94385.9
96233.5
98081
99283.4
97740.1
93690.9
88517.9
83935.7
80478.6
78068.9
76548.7
75815.5
91352.8
91870.8
92904.2
94428.7
96282.7
98128.2
99139.9
97765.9
93643.8
88647.8
84028.6
80511.6
78076.6
76548.5
75812.8
91362.2
91887.1
92935.5
94477.5
96348.6
98093.9
98257.2
97341.5
94277.4
88773.5
84130.5
80559.2
78086.2
76546.9
75808.6
91372.3
91905.5
92977.8
94563.1
96425.1
97259.8
98162.6
97321
94320.9
89950.9
84300.5
80620.4
78101.6
76545.6
75804.6
91379.6
91920.2
93005.5
94612.5
95772.2
97310.5
98139.7
97288
94297.2
89984.6
85534.1
80662.2
78112.3
76546.2
75801.8
91383.2
91928.3
93019.9
94628.8
95772.6
97341.4
98176.1
97194.4
94293.1
89999.7
85516.1
80672.1
78130.1
76555
75803.6
91382.4
91923
93008.5
94616
95768.1
97328.7
98149.7
97273.5
94302.4
89997
85525.7
80668.3
78117.9
76552.1
75808.3
91378.1
91911.6
92984.4
94570.4
96433
97278.8
98151.1
97304.2
94305.7
89988.1
84315.5
80634.6
78115.5
76559.2
75817.7
91370.5
91895.7
92944.7
94487.5
96359.9
98106.9
98258.7
97348.6
94319.6
88793.7
84151.3
80579.6
78106
76566.1
75827.6
91363.3
91881.8
92915.9
94441.7
96297.3
98143.9
99160.1
97789
93669.7
88674.5
84055.4
80537.7
78101.8
76573.1
75837
91357.4
91871.1
92893.7
94400.9
96250.4
98100.7
99305.4
97765.8
93718.7
88548.2
83966.6
80508.9
78098.2
76577.3
75843.7
91353.1
91863.9
92880.1
94377.2
96219.7
98077.3
99304.5
97746.9
93680
88490.7
83927.4
80494.1
78096.3
76580
75848
91351
91860.5
92874.1
94367.6
96207.4
98067.3
99308.8
97743.2
93673.3
88474.2
83913.3
80488.2
78095.6
76581.4
75850.1
89748.2
90441
91870.3
94126.2
97273.8
101248
105410
103189
96399.1
87566.5
81203.2
77169.2
74574.1
73013.8
72287.4
89748.8
90443.2
91876.1
94138.6
97293.6
101270
105413
103199
96429.4
87604.4
81222.8
77172.1
74571.4
73010.4
72284
89750.3
90448.6
91890.2
94170.4
97353.6
101332
105440
103226
96505.9
87680.1
81265.6
77176.9
74565.4
73003.1
72276.6
89752.4
90457.2
91917
94253.5
97533.5
101503
103093
103317
97979.7
88198.6
81462.6
77209.9
74557.1
72991.6
72264.8
89754.4
90466.9
91955.1
94336.9
97669.3
99954.9
103100
103253
98073.3
90328.8
81614.2
77228.4
74539.7
72969.4
72246.6
89758.6
90488
92025.4
94566.9
96790.1
100148
103142
103134
98030
90520.4
83760.6
77311.6
74516
72953.6
72229.1
89758
90488.9
92030.2
93961.8
96846.3
100262
102147
102380
98263.9
91466.9
83964.1
79143
74452
72918.7
72208.9
89762.7
90500.9
92103
93961.5
96890.1
100296
102178
102362
98293.5
91519.9
84051
79206.8
74572.4
72918.3
72213.6
89760.6
90491.7
92032.9
93949.8
96880.8
100289
102159
102374
98271.3
91519.6
84037.4
79199.7
74458.4
72926.2
72216.9
89764.9
90494.8
92032.8
94575.1
96797.2
100192
102195
102391
98269.3
90584.5
83855.7
77329
74533.3
72970.1
72244.2
89763
90475.8
91964.7
94347.7
97681.7
100018
103102
103147
98015.4
90471.5
81640.5
77253.7
74563.5
72991.6
72268.9
89763.4
90468.7
91929.6
94267.7
97549.9
101522
103082
103324
98104.7
88234.2
81496.8
77242.1
74587.3
73020.8
72292.9
89763.1
90461.9
91904.7
94186.5
97371.8
101354
105466
103277
96542.4
87720.1
81304.8
77214.1
74600.5
73036.7
72309.5
89762.8
90457.9
91892.1
94156.5
97314
101294
105440
103242
96470.1
87649.2
81266.5
77213.4
74610.4
73047.6
72320.2
89762.9
90456.4
91887
94144.8
97295
101273
105439
103227
96441.3
87613.2
81248.8
77212.3
74614.8
73052.7
72325.3
87245.4
88077.1
89853
92845.9
97516.6
104791
110842
117053
104384
83711.5
75978.4
72028.7
69626.6
68295.3
67710.2
87241.7
88074.5
89853.6
92855.1
97543.2
104820
110854
117057
104394
83736.1
75984
72016.8
69615.7
68287.9
67704.1
87234.1
88069.4
89854
92862.4
97581.6
104889
110874
117056
104377
83702.2
75946
71966.2
69585.2
68268.3
67689.5
87223.2
88066.2
89870.4
92942.4
97989.8
102732
111024
117150
104299
87952.2
76050.4
71858
69540.5
68241.3
67666.5
87204.7
88045.5
89859.1
93024.9
96751.1
103022
111325
114605
105466
88681.5
79263.2
71747.8
69407
68177.7
67629.2
87192.8
88031
89930.3
92637.3
96903.6
102111
109497
113527
105487
90873.7
79391.3
74143.3
69292.1
68100.2
67588
87175.3
88002.7
89934
92693.1
97070.5
102137
108571
113465
105877
91786.8
81073.6
74178.3
69182.4
68027.3
67549.7
87164.5
87976.4
89970.4
92766
96426.1
101652
108598
113440
105840
91787.3
81060.2
74193
71168.1
67970.1
67539.1
87177.8
88006.1
89938.6
92737.8
96422.3
102136
108600
113444
105848
91798.3
81068
74162.2
69195.3
68037.1
67558.6
87199.8
88038.4
89937.8
92634.5
97036.8
102149
108558
113482
105898
91820.3
81125.1
74205.7
69310.2
68118.6
67606.1
87213.2
88054.5
89869.1
93036.8
96772.2
103134
109409
114528
105504
90794.9
79414.3
71780.8
69436.9
68205.1
67655.5
87234.6
88078.2
89883.9
92957.4
98007.3
102802
111089
117183
104320
88144.5
76094.7
71898.2
69576.5
68275.1
67699.5
87247.1
88083.1
89869.3
92879.9
97601.1
104911
110923
117078
104405
83759.2
75997.6
72013.1
69627.6
68308.6
67728.2
87256.1
88089.8
89870.5
92874.3
97565
104845
110882
117092
104454
83798.9
76041
72068.5
69663.1
68331.9
67746.6
87260.5
88093.1
89870.6
92865.8
97539.2
104817
110879
117097
104446
83778.1
76038.1
72082.6
69675.7
68341.5
67754.8
83580.6
84410.1
86226
89437.8
94736.7
101863
118679
149414
110061
77125.9
66165.3
64217.5
62975.6
62398.8
62164.9
83571.1
84400.3
86215.9
89428.5
94735.8
101868
118667
149409
110064
77119
66131.1
64178.2
62957.4
62389.5
62158.6
83548.4
84372.3
86180.3
89366.9
94640.3
101870
118604
149372
110041
77090.7
66003.3
64083.6
62907.2
62361.4
62142
83515.2
84334.7
86135.8
89181.8
94050.4
102280
118635
149234
109792
77110.9
69473.3
63730.1
62811.4
62310.3
62113.1
83457.6
84252.5
85957.6
89268.4
94092.8
101407
115761
149124
110535
80800.4
69120.3
66015
62541
62218.9
62063.5
83396
84111.3
86483.8
89352.8
93856.4
101399
114357
144103
114957
82675.2
71290.2
65814.4
64341.3
62071.3
62006.4
83368.8
84078.1
86495.5
89366.6
93890.1
100987
114269
144008
114892
82638.2
72478.6
67385.7
64268.5
62034.1
61978.9
83332.9
84044.4
86562.6
89396.3
93897
100968
114235
143972
114887
82633.9
72454.3
67359.9
64272.2
62039.7
61943.5
83369.3
84078.8
86514.3
89416.8
93920.6
100973
114238
143978
114894
82642.6
72467.7
67381.3
64241.9
62045.9
61988.2
83404.3
84120.7
86512.3
89344.6
93910
100994
114283
144025
114918
82663.5
72500.6
67422.1
64327.5
62093.2
62027.6
83465.6
84260.6
85968.1
89287.9
94116.7
101450
114387
144137
115004
82719.2
71466.6
65950
62576.6
62251.1
62093.9
83526.5
84346.7
86149.9
89197.3
93967.5
102225
115831
149163
109932
81122.1
69419.6
63778.6
62855.3
62350.8
62151.6
83561
84385.9
86196.2
89386.5
94662
101914
118637
149321
110074
77180.3
66071.3
64141.8
62959.2
62408.6
62186.9
83585.5
84415.8
86233.4
89448.7
94759.2
101915
118677
149419
110138
77223.1
66205.2
64242.5
63013.9
62441.2
62207.9
83595.8
84426.4
86244.4
89459
94761
101889
118703
149448
110155
77209.5
66243.6
64284.8
63034.9
62453
62216.5
78652.3
79235.3
80487.6
82652.9
85996.5
92969.5
100472
97425.6
22452.3
48466.5
51902.9
53807.1
54956.7
55679.9
55995.6
78639.2
79220.9
80469.6
82626.7
85976
92942.5
100452
97331.9
22549.2
48460.3
51829.2
53774
54950.5
55678.4
55996.9
78605
79174.6
80414.8
82583
85882.8
92866.5
100380
97270
22429
48460.4
51739.5
53751.1
54934
55670.5
55997.1
78551.2
79093.8
80318.5
82330.1
87161.4
92492.1
100155
97166.1
22895.6
48530.8
53360.3
53807.2
54913.6
55648.6
55995.4
78461.4
78964.1
80086.2
83509.3
86956.8
92935.1
100990
97065.7
22783
51797.2
54908.2
55314.8
54908.4
55635.4
55984.2
78350.1
78826.1
81338.6
83413.1
87433.2
93185.6
100819
96879.8
23028.8
52078.9
55839.4
55365.1
56277.4
55667.4
55972.5
78316.1
78776.7
81345.7
83346.8
87686.2
93130.6
100727
96780.3
23090.9
52125
55935
56410.6
56236.7
55710.5
55994.3
78296.3
78744.4
81317.3
83991.2
87691
93105.7
100686
96691.7
23145.6
52144.9
55969
56991.7
56272.9
55747.8
55990.6
78318.8
78779.3
81320.2
83984.5
87694.4
93110.1
100691
96712.4
23146.1
52156.2
55978
56997.9
56240.4
55723.8
56005.6
78356.8
78832.4
81360.3
83360.7
87690.9
93143.9
100742
96794.1
23154.8
52158.1
55959.8
56432.1
56255.2
55691.5
55996.3
78469.5
78973.8
80099.3
83474.3
87462.2
93206.2
100847
96911.8
23082.1
52124.6
55862.6
55311.5
54948.7
55672
56018.6
78561.5
79105.3
80330.7
82346.4
87104.4
92239
99927.7
97135.4
22865.8
50351.6
53293.6
53865.2
54965.9
55695.1
56039
78617.4
79188.4
80431.6
82605.7
85907.1
92698.7
100259
97196
23138.2
48559.9
51824.6
53822.9
54995
55724.4
56048
78652.9
79235.8
80487.5
82647.4
86002.7
92944.4
100430
97298.8
22636.4
48587.4
51924.7
53851.1
55016.5
55737.5
56052.5
78667
79251.8
80506.7
82676.2
86024.7
92990.1
100486
97355.3
22574.6
48597.2
52003.3
53888.2
55026
55741.8
56053.8
72672.8
72784.9
72979.5
73245.2
73855.7
78494.8
82573.2
95778.9
2415.74
27752.4
38145.9
43550.5
47027.4
49028.3
49908.4
72662.5
72772.8
72967.2
73233
73865.4
78473.1
82551.5
95618.5
2473.7
27750.5
38100.3
43570.6
47051.1
49045.9
49926.5
72637.3
72739.9
72933.3
73243.1
73868.8
78401.5
82482.3
95554.2
2495.92
27807
38120.7
43627.9
47098.3
49088.7
49964.3
72598.7
72675.5
72878.8
73329.1
76589.6
78355.7
82294
95460
2647.48
28012.2
38805.4
43956.2
47218.5
49166.1
50029.4
72534.6
72584.4
72846
75357.8
76677.7
80151.6
83336.5
95499.6
2221.17
28259.8
39644.5
45069.1
47466.2
49293.7
50113.8
72456.3
72568.5
74553
75319.5
77940.7
80950.3
83222.2
95194.3
2240.71
28529.9
40093.7
45199.2
48418.9
49493
50206.1
72439.4
72545.2
74522.8
75286.7
78585.9
80870.5
83153
95156.6
2263.33
28597.3
40190.1
45711.5
48469.9
49578.6
50273.5
72428.7
72525.1
74480.5
76363.1
78547.7
80836.8
83124.2
95094.8
2280.43
28616
40234.3
45995.9
48524.6
49624.9
50290.4
72442.3
72548.4
74482.7
76351.8
78552.9
80842.3
83129.5
95127.4
2298.53
28632.9
40244.7
46003.9
48513.9
49592.2
50286
72461.4
72573.7
74521.8
75319.4
78584.9
80888
83170.3
95168.1
2319.34
28637.2
40218.2
45746.5
48466.7
49518.9
50231.9
72541.6
72592.9
72856.5
75335
77994.5
80987.9
83251.2
95217.2
2332.9
28585.9
40117.8
45144.3
47511.9
49334.4
50151.3
72607.9
72686.5
72894.1
73350.3
76701.9
78522.8
82500.6
95550
2349.45
28329.1
39081.4
44024.3
47277.7
49216.9
50076.8
72648.2
72752.5
72948.9
73262.7
73898.5
78408
82413.6
95487.8
2789.53
27970
38217.6
43710.5
47166.1
49147.9
50020
72674.6
72786.8
72985.7
73258.9
73899
78477.5
82539.3
95589.9
2758.21
27900.9
38208.5
43658.7
47125.2
49111
49987
72685.6
72800.1
72999.2
73272
73891
78526.6
82597.6
95652.5
2717.56
27903.4
38259.6
43643.8
47105.2
49096.4
49971.9
66257
65848.7
64994
63637.7
64149.3
64286.2
67710.7
2226.02
20216.2
30182.5
36493
40926.8
43590.1
44821.9
66256.8
65847.6
64994.7
63640.4
64148.9
64277.5
67698.6
2246.14
20206.1
30182.8
36557.4
40972.3
43626.8
44856.6
66257.1
65848.7
64991
63647.5
64238.1
64293.7
67656.7
2281.48
20002.5
30242.4
36623.9
41053.5
43707.4
44927.7
66265.6
65852
64986.6
63804.7
64693
64262.6
67507.7
3940.69
20107.1
30115
36967.8
41223.9
43852.7
45043.9
66278.5
65861
65146.7
66025.9
65188.6
66280.3
68111.8
2296.7
18382.5
30040.4
37289.9
41453.6
44046.9
45192.8
66283.9
65989
66888.5
66221.7
66624.3
67216.7
68046.2
2299.69
18405.8
30021
37453.7
41936.9
44217.4
45352.8
66303.4
66022.3
66832.2
66293
67416.1
67241.1
68034.6
2378.5
18464.8
30113.4
37589.4
42042.6
44306.1
45431.4
66301.3
66023.7
66813.1
67282.7
67472.8
67249.2
68033.5
2443.72
18468.3
30156.1
37674.1
42054.7
44354
45455.8
66305.1
66024.8
66804.4
67291.7
67477.2
67253.6
68040.2
2366.21
18488.6
30168.7
37681.6
42053.2
44319
45445.7
66287
65993.2
66825.2
66310.3
67423.4
67254.4
68054.5
2416.87
18511.8
30146.2
37607.5
42039.4
44249.1
45382
66282.4
65866.2
65153.3
66039.2
66617.4
67239.1
68077.7
2350
18472.4
30071.9
37411.8
41501.9
44088.5
45230.8
66272
65860.4
65001.1
63826.9
64869.5
64431.5
67341.9
2391.05
19081.4
30321.7
37041.7
41287
43905.3
45093.1
66264.3
65858.3
65005
63668.8
64353.5
64320.1
67627.2
5923.34
20112
30349.5
36711
41123.8
43769.2
44985.1
66265.1
65858.8
65012
63667.5
64265
64341.2
67729.1
2507.16
20312.2
30301.2
36654.2
41051.6
43695.1
44919.9
66265.9
65860.8
65012.6
63665.8
64175.3
64335.6
67764.9
2469.84
20387.1
30308.4
36594.9
41009.5
43661.6
44888.1
60216.6
59324.8
57469.1
54302.9
53035.6
47929.9
45523.9
2242.57
2185.43
17932.3
26444.2
32824.4
37320.6
40095.4
41429.7
60225.2
59332.3
57474.2
54307.4
53033
47922.4
45520.8
2260.97
2200.35
17991.1
26481.2
32899.1
37370.3
40141.6
41472.8
60244.7
59355.5
57487.9
54281.7
53047
47913.1
45518.7
2264.92
2215.8
15198.9
26534.9
32985.7
37458.8
40231
41554.7
60284.9
59402.7
57471.2
54344.1
53091.8
47900.3
45553
2264.56
2240.64
15600.3
25333.7
33159.7
37609.1
40383.8
41680.9
60357.1
59471.3
57621
56998.2
53309.4
50477.2
47376.8
2977.11
2264.68
13991.5
24812.1
32677.8
37791.8
40572.3
41832.3
60426.3
59654.5
59451.5
57153.6
55028.6
51700.4
47537
3043.51
2251.15
14048
24594.1
32832.3
37678.5
40698.3
41995.3
60467
59693.3
59461.6
57169.3
55846.5
51765.7
47597.5
3049.76
2229.75
14105.9
24704.7
32566.3
37811.3
40769.9
42071.3
60470.8
59712
59462.5
58312.9
55919.9
51799.7
47620.3
2801.98
2297.7
14145.6
24762.3
32445.9
37861.4
40814.8
42099.7
60466.9
59695.8
59456.9
58330.3
55923.8
51805.2
47632.4
2846.66
2264.47
14165.5
24778.3
32455.7
37857.3
40784.8
42085.9
60426.8
59656
59462.4
57188.1
55878
51781.5
47630.8
3119.02
2247.32
14165
24746
32589
37806.2
40727.7
42022.1
60355.8
59471.3
57626.7
57044.3
55032
51715.9
47577.5
3158.54
2236.21
14133.7
24662.9
32800.9
37842.6
40614.7
41870.9
60285.2
59406
57482
54366.5
53108.7
48025.8
45723.7
3068.6
2270.4
14658.5
25528.8
33242.3
37674
40437.3
41730.2
60245.1
59359.5
57497.5
54307.4
53058.4
47961.6
45620.1
2322.69
2366.83
15512.3
26648.6
33072.9
37530.5
40292.9
41611.2
60226.1
59337
57489.3
54337.9
53091.2
47989.6
45616.1
2326.47
2380.26
18165.1
26608
32996
37448.5
40209
41534.7
60218.2
59330.8
57483.8
54334.7
53080.5
48009.8
45629.9
2337.17
2396.36
18097.4
26579.9
32927.7
37402.8
40165.9
41494.4
55279.4
53955.7
51173.7
46288.2
38094.5
31581.3
12784.7
2292.98
2205.31
17852.2
25114.9
31536.9
35912.3
38614.1
39930.1
55290.1
53965.9
51177
46289.8
38090.9
31564.6
12780.6
2292.51
2220.08
17916.5
25188.2
31617.4
35963.6
38665.7
39975.6
55314.1
53993.6
51194.7
46278.8
38042.1
31336.1
12737.6
2292.88
2232.43
15342.2
25389.7
31734
36057.2
38757.5
40058.3
55354.8
54053.8
51179.3
46337.4
42521.3
31273
12857.5
2296.83
2304.11
14713.3
23434.6
31843.8
36210.9
38902.4
40180.5
55433.5
54140.2
51253.8
49277.6
42616.2
34877.6
18844.7
2272.63
2308.39
12381.1
22689.8
30709
36395.9
39096.4
40323.5
55523.8
54227
53328.2
49295.2
44788.9
36636.1
19833.5
2271.83
2290.3
12624.5
22415
30899.6
35707.8
39228.8
40482.9
55556.9
54258.1
53355.7
49230.4
45735.9
36720.4
19929.9
2270.42
2293.19
12938.1
22614.2
30372.8
35848.3
39308.8
40560.6
55562.1
54275.8
53365.9
50698.5
45716.2
36761
19968.1
2268.32
2323.8
12832.8
22714.2
30115.6
35921.4
39353.9
40594.6
55555.8
54256.7
53363.4
50710.4
45718.4
36767.9
19983.4
2268.53
2319.47
12909.1
22737.4
30127
35919.1
39323.3
40573.5
55523.1
54223.7
53365.1
49247.2
45755
36740
19980.7
2270.56
2312.71
13061.5
22670.9
30399.2
35842
39255.6
40506.5
55422.3
54134.5
51255.6
49405.3
44800.6
36660.3
19889
2271.91
2298.39
12749.2
22501.7
30866.2
36445.4
39135.9
40359.3
55344.3
54047
51172.8
46350.4
42627.4
31591
14620.6
2271.41
2332.73
13193.7
23671.7
31924.3
36271.9
38952.5
40225.8
55303.7
53987.3
51200.2
46296
38088.3
31461.2
12946.4
2299.78
2365.27
15348.8
25511.4
31820.7
36126.3
38814.8
40109.8
55278.9
53958.9
51179.1
46309.8
38147.3
31581.2
12922.4
2294.94
2374.08
18080
25319.9
31708.8
36037.4
38727.7
40031.7
55267.8
53948.5
51176.2
46309.9
38158.1
31680.8
12974.7
2293.69
2388.75
18034.1
25263.7
31634.3
35989.7
38678.8
39988.6
52064.7
50514.2
47262.7
41818
33101.4
24504.1
2208.59
2287.5
2192.01
16147.4
25673
32235.5
36394.7
38961.6
40199.2
52072.5
50523.8
47265.1
41818
33179.3
24516.4
2233.34
2287.81
2207.27
16296.2
25794.5
32320
36457.7
39019.5
40246.7
52093.6
50551.1
47277.8
41779.6
33311
24654.8
2713.34
2285.27
2234.97
14513.3
26442.1
32488.4
36584.7
39124.8
40334.6
52128.6
50622
47341.3
41932.3
36472.6
24554.1
3914.29
2283.8
2321.92
14486.6
23904.2
32697.6
36781.1
39275.8
40463.7
52196.6
50725.2
47494.8
44240.7
36589.4
27009.7
12047.7
2270.34
2285.09
12596.1
23100.8
31156.1
37039
39499.8
40616.8
52280.9
50797.4
49096.4
44350.6
38318.2
28220.8
12262.8
2273.34
2273.02
13080.8
22933.7
31478.4
35949.7
39674.6
40787.2
52305.9
50819.9
49193.6
44381.3
39119.4
28327.2
12354.3
2272.46
2283.35
13603.9
23354.8
30808.8
36121.4
39780.6
40874.8
52310.9
50831.4
49227.5
45548.4
39123
28380.5
12392.7
2269.6
2331.89
13825.7
23606.4
30486.7
36221.5
39831.1
40915.4
52300.1
50814.4
49224.8
45549.1
39122
28385
12407.6
2269.72
2327.66
13901.8
23625.5
30494.5
36214.4
39792.6
40885.3
52268.7
50784.8
49196.2
44371.8
39122.4
28339.5
12395.8
2272.64
2281.44
13749.5
23408.4
30821.6
36102.3
39696.2
40806.6
52178.7
50708.4
47481.2
44387.8
38308.3
28242.6
12317.9
2273.21
2273.27
13211.7
23017.4
31391.7
37083.3
39533.1
40646.3
52105.7
50601.4
47325.2
41925.7
36544.3
24953.2
11827.9
2269.6
2324.59
13461.4
24235
32768.8
36834
39317.7
40500.7
52066.6
50525.8
47257.6
41769.7
33324.4
24858.4
4033.38
2308.72
2364.27
14941.7
26549.7
32567.7
36644.7
39172.1
40376.5
52042.4
50495.8
47242.9
41806.1
33212.4
24564.7
2483.81
2300.95
2392.12
16499
25928.7
32401.6
36521.5
39070.1
40292.1
52033.1
50484.8
47240.1
41805.3
33142.9
24556
2477.74
2297.85
2405.73
16346.1
25811.2
32320.3
36461
39014.2
40246.4
50987.1
49553
46530.6
41769.2
33288.1
23150.6
2216.57
2229.1
2192.93
20388.5
29201.9
35075.2
38747.6
40988.4
42046.7
50988.8
49557.2
46534.5
41744.2
33385.8
23097.3
2227.41
2228.98
2207.28
20570.3
29279.1
35150.5
38817.6
41046.6
42094
51002.3
49573.3
46549.7
41568.3
34447.5
23423.2
4567.87
2266.41
2237.1
16778.7
30045.8
35390.7
38982.9
41164.9
42186.6
51033.3
49633.6
46624.7
41694
35698.3
23817.8
5442.32
2237.44
2236.16
16815.4
26865
35764.9
39215.7
41325
42325.2
51098.3
49741.9
46792
42980.6
35605.4
25599.3
11129.1
2268.51
2284.75
15252.7
26175.5
33928.5
39566
41573.6
42494.1
51180.1
49828.8
47655.3
43036.9
36642.5
26401.9
11275.7
2274.52
2332.88
19138.6
26494.8
34436.6
38199.3
41801.8
42676.2
51201.2
49854.7
47722.8
43088.7
37156.5
26526.7
11387
2281.06
2277.94
19360.3
27534
33744.9
38422.7
41929.8
42772.9
51207.9
49863.6
47763.9
43799.6
37180.7
26601.3
11452.6
2279.01
2270.49
20546.5
28202.6
33460.9
38551.5
41984.4
42817.9
51190.5
49844.2
47762.3
43793.9
37175
26599.2
11461.4
2279.21
2280.01
20532.3
28184
33455
38532.2
41937.6
42780.2
51158.7
49806.7
47705.3
43070.7
37144.7
26520.5
11412.2
2280.35
2360.77
19723.2
27519
33715.3
38378.7
41815.3
42689.4
51067.2
49709.9
46759.8
43056.8
36609.4
26402.6
11315.8
2273.44
2427.47
19152.6
26502.8
34261.4
39599.7
41596.9
42514.6
50992.8
49591.8
46581.6
41648.2
35635.1
24285.9
10601.5
2268.08
2304
16013
27397.5
35817.3
39253.2
41353.9
42350.4
50953.5
49522.1
46495.5
41511.1
34398.9
24047.3
6185.72
2369.68
2363.48
17126
30118.8
35447.5
39023.7
41196.8
42214.9
50934.1
49499.8
46474.4
41679.2
33335.6
23110.8
2359.73
2369.85
2398.94
20712.4
29374.8
35205
38860.7
41079.9
42124.2
50929.3
49492.2
46467.3
41698.5
33237.6
23167.8
2370.57
2372.75
2409.73
20506.9
29293.3
35129
38791.1
41022.7
42077.8
51995
50937
48649.7
45236.9
38470.3
31811.8
2202.8
12804.5
3389.09
31044.5
35731.4
40378.4
42930.3
44506.6
45242.3
51985
50922
48630.4
45126.4
38345.8
31227.2
2216.62
11734.5
5821.78
31056.3
35779
40410.5
42978.5
44547.9
45280
51981.5
50911.4
48648.6
44836.4
39746.9
29084.4
9358.3
5582.35
2231.5
24298.5
36859.3
40565.7
43135.6
44654.5
45361.3
51995.6
50935
48669.2
45007.9
39154.7
28850.8
10867.9
3501.12
2326.5
24000.7
33154.7
41004.9
43335
44801.3
45488.7
52046.5
51018.3
48818.6
45141.1
39221.4
29849.7
14481.7
2265.15
2280.19
19965.6
32118.3
38968.2
43722.3
45045.4
45654.5
52115.7
51103.7
48864.9
45221.9
39598.1
30401.2
14760.9
2273.62
7268.2
23211.5
32334.1
39503.2
42182.3
45296.9
45838.8
52129.6
51129.4
48924
45312.2
39813.5
30666.9
15049.8
2263.49
20929.3
31638.4
33910.3
38715.7
42406
45424.7
45932.1
52137
51138.5
48964.7
45475.8
39872.5
30799.8
15188.6
2261.65
27112.5
34852.7
34908.5
38432.2
42558.9
45477.1
45975.6
52114.7
51114
48960.3
45466
39858.8
30782.7
15176.7
2261.53
25932.1
34400.4
34814.3
38410.4
42527.4
45428
45935.7
52085.9
51072.3
48896.1
45269.5
39777.7
30614.8
15026.4
2265.14
18623.7
30249.1
33695.8
38646.8
42339.9
45302.5
45844.6
52001.7
50969.8
48762
45192.9
39508.7
30324.8
14715.8
2274.21
4795.55
22115.2
32196.1
39300
43735.4
45055.2
45664
51936.6
50870.4
48593.5
44911.4
39082.8
29190.1
13905.8
2265.79
2310.25
21467.9
33700.3
41022
43349.2
44813.2
45499.7
51910.1
50832.2
48554.6
44714
39589.8
29167.9
11779.2
6880.62
2374.75
24685.7
36881.1
40584.1
43149.2
44666.7
45373
51904.7
50832.4
48524.2
44987.8
38174.7
30979.3
2422.34
11607.1
5949.68
31117.5
35804.3
40418
42991.7
44559.4
45291.8
51909.9
50841.3
48535.6
45084
38280.6
31532.9
2446.1
12720.6
3280.71
31062.2
35740.2
40380.1
42941.9
44517.8
45254
54563.8
54030
52840.5
51829.8
49081.1
53591.9
64378.8
49761.2
61804.2
52318.4
46842.3
48219.7
48554.3
49130.9
49409.2
54534.1
53977.2
52766.6
51582.3
48561.6
52164
60996.7
48032.3
60104.7
51357.5
46613.2
48105.4
48543.7
49134.2
49424.5
54500.5
53910.6
52731
50757.3
49031.2
42728.4
38128
32863.6
37714.2
41876.7
46837.5
47688.6
48603
49176.9
49468.4
54479.7
53885.4
52661.2
50891.2
46466.2
41375.1
34334.8
17239.6
17763.6
40358
43600.6
47908.4
48687
49268.7
49549.5
54499.5
53937.5
52763.7
49946.1
46918.4
41078.5
30376.7
8735.12
23489.7
36226.1
42516.2
46123.7
48939.3
49455.3
49673.4
54545.3
53986
52064
50082.3
46544.2
41272.7
32627.7
21010.5
2200.96
33170.5
41787.4
46495
47487.6
49608.9
49824.4
54544.1
53995.8
52058.2
50237.2
46454.9
41756.4
33659.3
29310.9
2259.84
31542.8
42137.8
45556.6
47676.1
49692.9
49890
54548.3
54001.2
52089.5
49808.4
46541.2
41946.5
34049.6
26264.6
2254.53
32592.5
42555.1
45065.7
47788.2
49733.3
49924.4
54526
53976.3
52082.9
49796.3
46519.2
41912.3
33994.1
26951.2
2270.91
32474.7
42511.5
45048.3
47763.2
49693
49890.5
54508.8
53946.6
52030
50170.6
46393.7
41643.6
33503.1
28744.8
2305.29
31552.9
42087.4
45518.3
47623.9
49608.1
49823.9
54444.3
53876.4
52688.7
49942.8
46384.5
41078.6
32262.7
21359.6
1863.66
34053.4
41774.1
46325
48935.3
49453.1
49672.8
54406.8
53803.4
52560.1
50754.1
46471.3
41650.4
29927.9
2694.68
22403.2
37707.7
44002.6
47887.7
48678.1
49264.3
49547
54411.8
53809.4
52602.6
50573
48748.7
41593.2
36226.4
31015.7
35774.1
40586.9
46774.5
47658.9
48588.9
49169.7
49464.1
54433.9
53861.3
52617.1
51353.5
48184.6
51293.5
58076.3
47045.2
59842.7
51195.1
46523.9
48061
48526.4
49123.7
49418.5
54457.3
53905.3
52677.4
51571.5
48651.2
52585.4
61256.3
48465
61501.4
52140.3
46732.6
48169.7
48534.8
49119
49402.3
57927.8
57921.6
57748.6
58924.2
59495
63348.7
79444.3
72156.7
80426.2
62333.6
57762.4
56104.3
54466.3
54150.3
53961.5
57879.5
57836.3
57649.3
58709.6
59014
63107.2
78658.5
71550.9
78802.2
61974.2
57449.6
55985.4
54419.2
54116.2
53951.6
57808.8
57681.5
57549.7
57427.4
58388.9
58450.5
65933.1
71992.9
69775.5
59148.5
56693.5
55080.3
54364.2
54047.1
53941
57740.2
57595.6
57385.3
57411.9
55545.1
56971.9
62484.5
69691.8
67084.2
58771
55062.1
54953.5
54286.7
54040.2
53948.8
57707
57587.6
57319.8
55863.5
55803.5
55510.4
56856.3
66470.5
77358.1
60652.9
54871
53736.2
54304.9
54102.1
53986.1
57709.9
57526.3
56233.1
55897.7
55231.8
55543.9
57858.3
56226
95282.8
65017.1
55072.9
53825.6
53206.4
54114.2
54048.4
57683.5
57500.6
56194.6
55924.9
54879.9
55938.7
58665.4
60234.2
91899.6
63497.4
55265.2
53359.7
53303.5
54119.8
54064.3
57680.4
57495.5
56206.1
55281.3
54858.2
55951
58695.1
61697.7
92461.2
62999.6
55355.5
53169.5
53326.1
54133.1
54082.6
57664.1
57479.6
56203.3
55266.7
54837.5
55927.9
58681.8
61655.7
92247.3
63019.5
55355.3
53162.4
53330.1
54118.2
54062.8
57670.9
57484.1
56182.5
55866.8
54811.4
55838.9
58582.7
59735.7
92150.1
63872
55283
53347.5
53292.1
54109.2
54043.9
57648.4
57523
57242.1
55815.9
55014
55340.3
57591.4
55836.7
95333.2
64971.3
55053.7