/*--------------------------------*- C++ -*----------------------------------*\
| =========                 |                                                 |
| \\      /  F ield         | OpenFOAM: The Open Source CFD Toolbox           |
|  \\    /   O peration     | Version:  v2012                                 |
|   \\  /    A nd           | Website:  www.openfoam.com                      |
|    \\/     M anipulation  |                                                 |
\*---------------------------------------------------------------------------*/
FoamFile
{
    version     2.0;
    format      ascii;
    class       volScalarField;
    location    "0.017";
    object      p;
}
// * * * * * * * * * * * * * * * * * * * * * * * * * * * * * * * * * * * * * //

dimensions      [1 -1 -2 0 0 0 0];


internalField   nonuniform List<scalar> 
449343
(
108082
108252
108546
108867
109072
108996
108374
107147
105355
103198
100965
98926.9
97278.6
96133.2
95548.6
108073
108245
108541
108866
109076
109007
108391
107169
105384
103232
100999
98959.8
97308
96159.2
95572.6
108074
108248
108551
108883
109101
109043
108438
107229
105456
103313
101084
99040.2
97381.2
96225.7
95635.2
108081
108260
108569
108912
109141
109098
108510
107318
105562
103431
101206
99157.2
97487.7
96322.1
95725.8
108091
108274
108592
108947
109187
109163
108594
107423
105687
103568
101348
99293.1
97610.6
96432.7
95829.5
108098
108285
108611
108977
109229
109225
108674
107524
105806
103702
101485
99423.7
97728.2
96538
95927.7
108098
108288
108621
108995
109256
109269
108733
107598
105896
103804
101587
99522.6
97817.2
96617.5
96001.8
108087
108279
108615
108994
109260
109283
108755
107629
105934
103850
101635
99567.9
97858.3
96654.6
96036.6
108065
108256
108592
108970
109236
109259
108734
107609
105915
103828
101614
99548.9
97842.4
96641.3
96024.6
108031
108220
108551
108925
109186
109201
108668
107536
105834
103741
101528
99468.2
97771.3
96579.2
95967.5
107990
108175
108500
108865
109117
109118
108572
107425
105710
103607
101395
99343
97660.2
96480.9
95876.5
107945
108126
108443
108798
109040
109025
108462
107297
105565
103454
101240
99198
97530.7
96365.2
95768.6
107901
108079
108389
108734
108966
108936
108357
107176
105429
103308
101094
99059.8
97405.9
96252.5
95662.8
107863
108039
108343
108681
108905
108863
108272
107079
105320
103192
100977
98949.6
97305.2
96160.5
95575.6
107834
108008
108309
108643
108863
108814
108218
107017
105253
103120
100906
98881.3
97241.9
96101.5
95519.1
107885
108103
108496
108971
109364
109506
109021
107738
105699
103208
100678
98442.2
96684.1
95485
94879.2
107876
108096
108492
108972
109371
109519
109041
107766
105735
103250
100721
98481.7
96718.3
95514.7
94906.5
107877
108100
108503
108993
109402
109561
109094
107836
105822
103349
100823
98576.7
96802
95588.9
94975.6
107884
108111
108524
109027
109450
109622
109174
107935
105949
103496
100976
98717.2
96924.6
95696.9
95075.8
107893
108127
108551
109069
109507
109695
109274
108068
106099
103673
101160
98885.2
97068.7
95822.2
95191.1
107901
108139
108574
109107
109560
109772
109369
108195
106261
103845
101340
99051.4
97209.5
95942.8
95301.4
107901
108144
108587
109132
109593
109830
109446
108290
106385
103982
101483
99180.3
97317.6
96035.2
95385.3
107890
108135
108581
109133
109600
109848
109475
108284
106434
104040
101545
99238.5
97367.4
96078.8
95425.2
107867
108111
108556
109106
109574
109820
109450
108313
106420
104017
101518
99214.8
97349.4
96064.1
95412.6
107832
108073
108512
109054
109517
109748
109369
108222
106311
103902
101401
99111.6
97264.3
95993
95349.1
107790
108026
108455
108984
109435
109651
109256
108083
106144
103733
101227
98952.2
97131.8
95881.3
95248
107744
107975
108394
108910
109346
109547
109127
107922
105967
103536
101027
98772.9
96980.2
95750.9
95128.6
107701
107927
108337
108840
109264
109450
109011
107786
105803
103355
100845
98607.8
96837.3
95625.7
95012.7
107663
107886
108290
108783
109197
109371
108919
107675
105675
103216
100706
98480.3
96724.5
95524.9
94918.3
107633
107854
108255
108744
109153
109319
108860
107608
105599
103134
100625
98404
96655.3
95461.5
94858.1
107388
107714
108336
109176
110049
110735
110676
109248
106545
103173
99915.9
97232.5
95236.7
93924.1
93274.9
107379
107707
108333
109181
110063
110754
110703
109288
106598
103235
99977.9
97287.1
95282.3
93962.8
93309.9
107379
107711
108347
109209
110109
110813
110771
109387
106720
103383
100127
97416.3
95390.1
94055.2
93394.3
107385
107724
108374
109257
110181
110893
110864
109528
106889
103606
100359
97614.9
95551.1
94190.7
93517.1
107394
107742
108409
109317
110265
110983
110959
109676
107103
103901
100653
97860.9
95746.2
94350.6
93660.1
107401
107757
108442
109372
110351
111078
111085
109868
107377
104183
100973
98117.3
95941.8
94507.8
93798.6
107400
107763
108461
109417
110405
111164
111203
110029
107599
104391
101246
98323.5
96098.7
94630.7
93905.7
107388
107755
108457
109424
110425
111212
111293
109924
107698
104485
101341
98413.1
96171
94690.6
93958.4
107364
107728
108427
109389
110385
111156
111219
110078
107673
104452
101304
98380.4
96147.4
94672.8
93944.5
107328
107686
108375
109313
110307
111053
111103
109934
107490
104285
101090
98219.7
96026.8
94581.7
93866.8
107284
107635
108307
109225
110193
110935
110956
109728
107210
104021
100776
97973.2
95844.2
94438.1
93742.1
107239
107581
108236
109130
110075
110809
110823
109539
106952
103692
100456
97710.4
95639.8
94273.3
93596.3
107195
107531
108173
109047
109967
110691
110686
109346
106724
103419
100181
97478.9
95454.2
94118.5
93456.8
107158
107489
108122
108982
109884
110594
110577
109200
106550
103220
99986.4
97310.3
95313.1
93997.1
93345.5
107129
107458
108086
108939
109833
110536
110509
109117
106452
103112
99881
97215.4
95230.2
93923.4
93276.6
106463
106946
107909
109332
111072
112808
113939
112224
108052
102823
98334.3
95031.4
92756.9
91331.8
90647.7
106452
106938
107907
109340
111093
112839
113971
112279
108124
102910
98420.7
95105.1
92817.3
91382.4
90693.3
106448
106940
107923
109378
111160
112931
114053
112427
108313
103151
98640
95281.3
92958.1
91500.2
90799.3
106450
106952
107956
109446
111266
113072
114070
112660
108542
103570
99021.4
95565.4
93173.6
91674.7
90954.3
106455
106968
108001
109533
111413
113203
113409
112576
109510
104165
99539.6
95945.3
93444.4
91885.1
91137.1
106458
106984
108051
109647
111558
112470
113494
112813
109963
105692
100203
96370
93730.9
92095.9
91317
106454
106992
108081
109717
110938
112604
113647
113060
110310
106121
101711
96712.2
93965
92265.2
91458.3
106440
106983
108082
109728
110947
112681
113782
113130
110512
106363
101926
96857.2
94082.5
92352.5
91529.3
106414
106952
108041
109681
110918
112639
113729
113198
110524
106365
101941
96813.6
94044.2
92330.9
91516.6
106379
106906
107974
109574
111499
112496
113593
113042
110305
106132
100448
96553.1
93871.2
92211.1
91419.7
106337
106851
107886
109426
111326
113159
113454
112771
109917
104410
99778.2
96140.2
93603.2
92020.5
91261.1
106294
106797
107804
109302
111141
112979
114032
112705
108693
103749
99205.4
95730.9
93318.2
91804.8
91076.9
106255
106748
107735
109198
110999
112801
113958
112399
108354
103238
98750.8
95396.4
93069.5
91607.1
90903.5
106220
106708
107682
109124
110897
112674
113829
112194
108095
102925
98466.6
95168.6
92888.4
91456.4
90768.1
106193
106678
107647
109079
110840
112605
113756
112092
107970
102783
98327.9
95048.3
92786.8
91368.3
90686.9
104917
105570
106923
109074
112081
115835
119883
117454
110327
101388
95210.9
91416.8
89032
87624.8
86978
104901
105557
106918
109081
112107
115880
119912
117492
110410
101492
95313.8
91503.7
89104.3
87686.7
87034
104889
105552
106929
109124
112205
116034
120024
117639
110709
101820
95600.9
91719.9
89275.8
87829.9
87162.3
104879
105553
106957
109224
112434
116335
117904
117987
112562
102758
96220.1
92107
89547
88045.5
87351.5
104870
105556
107001
109343
112665
114953
118140
118356
113284
105580
97071.3
92632.5
89904.3
88310.1
87577.8
104860
105566
107069
109587
111867
115297
118455
118755
113998
106661
99790.1
93295.7
90284.6
88586.2
87804.1
104842
105553
107072
109017
111953
115528
117687
118406
114768
108206
100694
95490.3
90573.8
88791.1
87980.9
104825
105543
107124
109004
112006
115609
117853
118696
115265
108764
101233
95848.3
90846.7
88903.7
88080.9
104797
105506
107019
108959
111962
115566
117822
118727
115304
108850
101240
95854.6
90700.1
88889.6
88065.7
104773
105478
106978
109491
111807
115366
117666
118477
114931
107494
100580
93596.6
90509.3
88758.5
87953.7
104741
105425
106868
109207
112545
115010
118273
118712
113966
106595
97516.6
92958.4
90149
88510.3
87757.8
104711
105383
106785
109051
112270
116210
117906
118242
113181
103093
96535.5
92370
89766.8
88238.5
87531.3
104683
105345
106721
108918
112012
115889
119877
117757
110779
101969
95784.3
91902.2
89448.2
87993.3
87320.7
104657
105313
106675
108843
111887
115718
119707
117459
110392
101537
95404.7
91616.8
89226.1
87811.4
87159.5
104635
105288
106644
108801
111829
115641
119637
117322
110252
101364
95235.9
91474.2
89106.7
87708.7
87065.6
102506
103278
104941
107781
112286
119353
125189
130785
117434
96538.6
89326.5
85825.9
83792.4
82717
82261.3
102482
103256
104925
107778
112306
119389
125210
130802
117416
96560.6
89400.8
85900.8
83866.2
82785.5
82324.9
102453
103232
104912
107784
112364
119515
125299
130936
117572
96808.3
89639.3
86101
84050.7
82945.9
82470.7
102421
103209
104913
107861
112778
117495
125605
131353
118107
101870
90372.4
86464.8
84354
83195.1
82688.7
102379
103169
104890
107948
111625
117870
126182
129458
120253
103715
94476.9
87098.7
84732.2
83494.7
82952.3
102341
103127
104943
107606
111823
117112
124666
129119
121720
107447
95913.8
90263.8
85200.5
83803.7
83219
102297
103070
104917
107647
111993
117203
123991
129783
123481
109941
98670.8
91076.1
85527.7
84027.4
83424
102260
103015
104970
107696
111364
116764
124159
130288
124573
111061
99537.7
91581
87824.6
84114.9
83534.4
102246
103017
104859
107633
111317
117183
124114
130335
124821
111353
99708.6
91584
85744.3
84170.2
83543.2
102245
103026
104830
107485
111824
117065
123863
129908
124084
110729
99061.9
91193.2
85546.5
84047.7
83426.2
102237
103021
104729
107767
111464
117866
124375
130106
122173
108052
95950.1
87615.6
85090.5
83776.7
83199.8
102238
103021
104715
107645
112533
117372
125640
131627
118888
103113
90865.1
86845.6
84664.5
83463.1
82936.1
102233
103008
104681
107542
112109
119273
125227
131007
117942
97034.9
89908.4
86359.5
84293.8
83175.3
82692.7
102225
102997
104661
107508
112031
119128
125024
130723
117437
96621.9
89538.4
86066.4
84044.6
82969
82510
102212
102982
104642
107480
111986
119073
124962
130632
117333
96505.8
89373.5
85920.1
83915.3
82855.5
82406
99015
99756.7
101408
104400
109472
116493
133133
163345
121384
88796
78702.6
77500.3
76848.7
76666.1
76628.4
98980.3
99721.1
101372
104367
109451
116487
133125
163325
120828
88455.6
78643.6
77521.2
76910
76733.9
76695.2
98925.1
99662.6
101308
104281
109341
116486
133096
163365
120733
88504.3
78699.9
77670
77085.8
76897.6
76850.7
98859.5
99587.5
101223
104066
108813
116897
133191
163436
121036
89264
82812.1
77848.1
77385.6
77156.9
77087.3
98759.4
99465.6
101003
104193
108831
116072
130411
163705
123465
94894.3
83852.1
80975.7
77707.2
77474.8
77375
98651.1
99275.2
101535
104218
108603
116057
129123
159287
131346
100014
88110.7
81950.9
80173.9
77786.8
77671.3
98591.3
99197.4
101503
104177
108595
115638
129053
159868
136275
104082
91435.8
84759.9
80676.5
78089.2
77914.7
98518.3
99128
101529
104159
108538
115529
128868
160036
140271
107038
93034.2
85550.1
81146
78239.3
78011.1
98530.8
99136.3
101449
104133
108499
115417
128608
159499
141292
107663
93371.3
85739.2
81166.9
78265.1
78067.2
98549.3
99159.7
101424
104026
108435
115351
128471
158926
138865
105686
92334.4
85218
80913.6
78095.4
77934.2
98603.5
99296.6
100806
103976
108544
115722
128535
158548
133342
101764
89032.1
82265.2
78184.4
77839.9
77692.3
98661.5
99382.2
100999
103805
108418
116455
129946
163141
123110
95744.5
84110.2
78350.4
77790.3
77502.8
77406.8
98693
99422.7
101052
103999
109023
116174
132749
163091
121046
89147.7
79043
78006.1
77403.3
77198.4
77143.3
98713.8
99448.4
101088
104066
109130
116182
132800
163111
120556
88463.3
78808.8
77734.6
77148.2
76983.2
76948.6
98712.8
99449.2
101091
104072
109133
116168
132835
163146
120838
88517.3
78732.9
77619.8
77021.8
76866.2
76839.5
94393.2
94847
95852.7
97684.2
100671
107566
115088
112620
36971
59193.5
63545
66636.6
68642.5
69925
70516
94346.8
94797.8
95798.8
97618.8
100616
107512
115058
112582
27504.1
57801.3
63230.3
66584.8
68686.8
69988.5
70583.4
94268.4
94707.3
95699.4
97533.8
100483
107390
114964
112539
26815
57456.8
63302.8
66790.6
68878.8
70161.7
70748.4
94161
94568.3
95532.2
97184.8
101825
106920
114674
112342
27370.3
58156.3
65386.8
67364.2
69258.7
70448.5
71008.1
94014.2
94380
95240.6
98366
101497
107306
115367
111897
29605.9
63745.8
68444.1
69749.8
69835.3
70849.4
71333.8
93847.5
94187.8
96430.9
98171.3
101952
107469
114948
110999
47979.8
70230.4
72296.8
70895.8
71864.2
71316.9
71671.9
93763.3
94086.4
96350.2
98011.5
102144
107233
114450
109616
78193.4
78885.7
75633.1
73478.3
72385.4
71686.8
71961.8
93704.9
94011.9
96261.2
98673.5
102034
106999
113872
107608
89925.2
84283.8
77895
75380.5
72791
71872.7
72095.5
93703.4
94020
96227.3
98615.9
101957
106839
113449
106000
90201.6
84874.3
78222
75596.5
72831.2
71866.4
72123.6
93732.9
94061.5
96260.4
97881
101932
106834
113488
106376
82408.7
81145.5
76660
73978.2
72587.5
71643.3
71963.9
93851.2
94201.1
95028.1
98020.1
101681
106988
113982
108582
59609.3
73330.6
73783
71158
70341.9
71256.7
71705.1
93958.7
94352
95285.1
96888.7
101343
106071
113546
110583
30376.3
63108.5
66807.5
67932.3
69729.2
70859.4
71395.3
94032.8
94458.8
95424
97213.8
100120
106718
114228
111573
26032.6
57929
63642.1
67179.1
69258.3
70533
71115.9
94079
94520.4
95503
97299.1
100263
107082
114572
112052
25511.8
57361
63361.2
66826.3
68984.1
70310.7
70915.1
94091.3
94537
95527.3
97338.5
100302
107177
114698
112219
27169.5
57965.3
63465.4
66757.3
68867.2
70196.7
70806.2
88923.2
88847.9
88673.6
88407.4
88412
92642
96502.4
109776
40374.6
37769.8
49243.1
56193
60796.2
63525.3
64759
88871.5
88792.4
88614.1
88342.9
88364.4
92575
96444.3
109582
7582.43
35969.9
48851.7
56110
60832.8
63586.1
64826.9
88785.8
88697.2
88512.6
88278.4
88274.2
92425.7
96305.9
109466
5012.1
35517.7
49007.9
56354.5
61049.4
63779.1
65003.7
88673
88553.5
88365.3
88264.6
91088.7
92293.1
96004.7
109257
3118.01
36004.3
49726.9
57082.3
61496.7
64117
65293
88531.2
88384.2
88232.1
90266.4
90998.2
94047.8
96929.7
109082
2530.87
37225.2
51545.8
58695.6
62193.1
64607.4
65673.3
88380.8
88292.4
89842.3
90077.1
92161
94693.6
96580.5
108432
8685.56
41680
54161.1
59803.1
63609.9
65158
66075
88306.9
88224.9
89656
89950.4
92691.1
94410.5
96176
107914
2739.39
46990
56784.4
61422.5
64188.2
65547.5
66388.4
88253.4
88160.1
89546.8
90904.3
92531
94168.9
95781.7
107313
12502
49696.4
58337.6
62535
64582.8
65758.8
66546.4
88246.3
88157.2
89508.4
90846.7
92448.3
94028.9
95536.9
106964
2182.81
46749.1
58197.6
62641.9
64607.8
65739.2
66560
88265.7
88165.9
89550.3
89844.8
92451.3
94044.9
95569.5
107060
2269.71
44659.3
56958
61727.2
64311.4
65507.6
66392.8
88369.1
88202.6
88014.5
89863.6
91884.6
94226.4
95862.6
107536
2293.64
42837.4
54941
59937
62721.6
65051.4
66094.5
88474.1
88335.5
88106.1
87941.7
90699.1
91867.7
95387.6
108351
3581.8
38125.2
51176.4
57646.7
62015.2
64590.3
65751.4
88558.8
88454
88236.2
87952.1
87893.1
91897.4
95568.3
108678
2531.26
36035.1
49410
56794
61493.7
64230.9
65458.1
88616.6
88524.9
88322.4
88017.7
88000.3
92089.3
95882.4
109008
2526.55
35575.3
48996
56423.7
61214.9
64002.1
65256.7
88636.7
88550.7
88356
88062.6
88037.2
92218.3
96044.8
109179
4074.86
35815.4
49159.8
56365.2
61109
63896.2
65152.8
83318.7
82656.4
81281.2
79099.4
78800.9
77756.3
80404.7
1913.47
26427.8
40813.9
49336.3
55230.8
58769.1
60417.5
83266.2
82600.6
81222.1
79040.4
78736.9
77689
80339.1
2300.43
26589.9
40761.1
49378.1
55286.3
58832.1
60483.7
83185.5
82517.5
81126.4
78954.3
78693.8
77606.8
80201.1
2298.78
26396.8
41002.1
49596.4
55488.4
59021.4
60655.6
83093.6
82417.1
81015.5
79020
78899.3
77444.4
79936.6
2293
26647.4
40343.4
50168.7
55861.9
59347.2
60935.4
82996.7
82314.5
81038.5
81004.8
79362.8
79453.7
80507.3
2291.38
25122.5
40610.9
50428.6
56416
59806.1
61308
82899.6
82337.6
82471.4
81169.3
80606.3
80287.9
80297.3
2311.33
26381.8
41386.1
51063.6
56900.6
60225.4
61711.3
82843.2
82294.3
82331.6
81134.3
81264.8
80111.6
80017.7
2289.52
27058.5
42379.6
51583.1
57375.1
60525.8
61996.3
82791.4
82240.6
82241.3
81953.4
81220.9
79913.1
79718.2
2329.18
26162.4
42671.5
52020.5
57581.8
60719.8
62156.8
82785.1
82225.3
82203.5
81912.1
81138.3
79785.6
79544.2
2281.91
24098.9
42306.6
52023.1
57627.9
60722.1
62189.6
82792
82215.8
82236.7
81001.9
81026.5
79758.4
79534.5
2244.78
23731.2
41882.3
51673.6
57512
60598.3
62073.5
82845.9
82137.3
80806.6
80693.5
80233.4
79796.8
79658.3
2277.31
25895
41454.7
51193
56958.5
60309.3
61799
82913.1
82213.1
80757.1
78682.4
78532
77035.5
78958.2
2331.18
26118.3
41209.7
50731.9
56440.8
59906.2
61489.1
82985.4
82298.4
80867.5
78632
78302.3
77055.4
79473.6
2294
26673.1
41468.8
50115.5
56040.8
59588.9
61227.5
83044.9
82364.6
80957
78733.8
78411.9
77237.5
79768.1
2294.13
26670.5
41144.2
49857.7
55813.8
59385.9
61048.7
83069.7
82395.2
80996
78782.5
78431.9
77349.8
79953.5
2300.84
26804.7
41183.4
49770.5
55721.8
59293.7
60957.1
78505.3
77298.8
74768.3
70352.5
68077.4
60465.8
56253.8
7194.16
2290.42
25400.4
37841.6
46782.2
52848
56537.4
58304.1
78446.9
77235.2
74694.1
70262.5
67988.2
60369
56139.8
2759.29
2299.51
25160.6
37894.8
46864.4
52900.1
56594.6
58359.9
78357.7
77141.4
74568.5
70089.8
67859.5
60209.4
56021.3
2496.87
2296.8
21662.2
38252.9
47020.6
53058.1
56746.9
58501.8
78260.6
77040.6
74391.1
69944.5
67703.6
59990.2
55835.8
2469.24
2301.22
21877.2
35903.6
47290.6
53301.7
56998.7
58726.1
78171.5
76925.9
74215.5
72828.6
67374.8
62833.8
57702
2371
2294.83
20123.2
35109.4
46178.2
53643.9
57357.3
59026.5
78085.1
76840.2
76091.8
72563.2
69166.7
63995.7
57817.4
2359.8
2294.55
20593.3
34909.4
46475.4
53136.9
57673.7
59366.9
78016.2
76751.4
75976.9
72288.9
69839
63721.2
57499.1
2258.66
2380.13
20165.6
35040
46019.9
53440.5
57905
59607.4
77961
76692.7
75874.8
73602.4
69665.4
63455.6
56987.1
3602.53
2248.91
18187
34785.3
45825.6
53623.1
58080.8
59769.1
77965.3
76684.6
75854.7
73573.5
69580.7
63318.3
56796.2
2421.43
2254.61
17532.6
34605.9
45849
53691.9
58135.1
59837.8
77993.8
76722.3
75919.7
72175.4
69617.2
63304.3
56766.5
2382.31
2230.68
18104.6
34720.5
46170
53659.8
58110.3
59799.9
78047.9
76772.1
73986.8
72464.5
68833.5
63389.9
56827.1
3636.95
3639.81
20188.3
34927.8
46789.9
54282
57963
59624.1
78119.9
76873.8
74159
69602.1
67143.3
59294.1
55035.6
2516.8
2312.48
21177.9
36640.2
47989
54015.9
57696.6
59418.6
78209.7
76972.3
74353.6
69797.1
67392
59583.7
55231.3
2318.91
2298.34
21946.6
38808.2
47693.7
53783.3
57481.8
59237.4
78286.9
77060.2
74487.5
70008.7
67649
59896.4
55524.3
2352.06
2297.91
25424.9
38472.6
47533
53623.1
57334.3
59105.5
78322.6
77105.1
74551.3
70105.5
67777.5
60134.1
55878.1
2598.42
2295.56
25917.4
38416.5
47445.8
53556.1
57261.5
59034.3
75320.8
73691.7
70234.4
64131.6
53600.9
43757.1
18842.3
2367.41
2301.84
27098.5
39014.3
47767.2
53508.6
56996.1
58666.3
75246.7
73607
70122
63980.4
53398.4
43530.4
18866.2
2276.03
2317.36
27066.6
39249.8
47828.8
53541.5
57036.3
58705.5
75128.7
73477.3
69946.7
63762.4
53111.2
43128.5
18865.1
2265.41
2302.69
22117.8
39317.8
47894.7
53632.4
57136.3
58807.9
74990.5
73336.8
69713.1
63524.4
57557.1
42810.1
18879
2277.32
2305.3
21862.2
35576.9
47954.4
53752.3
57295.2
58968.7
74859.3
73186
69501.4
66035.7
57381.7
46803.7
26032.3
2289.74
2286.46
19108.1
34043.8
45598.9
53971.2
57566.5
59199
74745.4
73021.6
71133.7
65779
59342.3
48309.9
26442.2
2283.48
2293.56
19518.9
33374.2
45804.9
52543.8
57849.2
59488.2
74648.7
72887.6
71034.8
65471.9
60038.6
47781.2
25591.4
2298.59
2263.99
19169.7
33346.7
44788
52816.4
58081.7
59717.6
74590.7
72822.5
70931.6
66821.7
59750.9
47429.3
25105.8
2298.29
2268.48
16575.2
33145.9
44332.2
53053.5
58279.7
59903.8
74614.7
72838.8
70918.6
66784.6
59665.8
47305.7
24986.8
2292.82
2251.5
16996.7
33294.6
44472.5
53188.6
58388
60013.8
74687.4
72936.6
70998.5
65385.5
59781.4
47340.2
25014.7
2295.45
2274.57
18264.7
33629.2
45222.8
53218.2
58427.9
60045.1
74785.9
73081.5
69312.5
65709.4
58928.5
47471.5
25035.5
2282.47
2312.91
19529.7
33862.4
46488.2
54858.9
58365.6
59964.1
74918.1
73236.8
69539
63216.2
56983.8
42057.5
19533.3
2276.32
2295.66
20574
36522.4
48969.6
54728.8
58213.6
59859.8
75064.6
73392.9
69816.6
63551.4
52775.5
42471.5
18089.1
2257.74
2304.38
22345.5
40144.5
48862.4
54619.1
58103.4
59760.9
75181.7
73531
70020.1
63840.7
53220.6
43054.4
18376.8
2247.35
2302.33
27420
40087.8
48766.5
54523.1
58015.2
59678.8
75238.8
73603.5
70132.3
64013.3
53487.2
43516.6
18850.4
2259.74
2301.05
27880.4
39899.5
48700.8
54475.1
57962.8
59629
74421.7
72725.5
69105.2
62926.7
52299.1
40237
7627.08
2327.87
2312.88
32650.4
43807.4
51952.3
56888
59858.2
61272.6
74326.1
72611.6
68938.6
62648.9
51986.2
39405.2
6597.63
2294.93
10644
33973
44467.3
52006.3
56907.3
59879.7
61295.5
74173.8
72436.2
68688.3
62271.2
51901.4
38365
7787.09
2312.53
2310.25
26136.8
44369.1
51933.4
56915.6
59932.7
61364.8
73993.9
72247.8
68429.5
62004.4
54017.8
37713.7
9278.48
2268.36
2301.56
25475.2
39354.6
51861.6
56930.1
60024.2
61483.4
73822.2
72061.3
68226
63312.3
53548.3
40467.3
21774.8
2363.82
2290.56
21276.2
36974.1
48615.9
57098.6
60246.9
61680.8
73679.2
71891.2
69008.3
62913.5
54579.9
40783.7
19444.5
2232.64
2313.66
21057.3
35891.6
48836.1
55057.1
60551.2
61965.3
73565.1
71732.1
68859.9
62571.7
54842.9
39860.9
16887.5
2245.67
2311.37
20504.4
36251.9
47684.7
55410.9
60843.8
62227
73514.9
71665.6
68764.7
63468.4
54486.9
39465.2
17070.6
2274.91
2302.84
19681.1
36929.1
47348.1
55784.9
61104.5
62463.4
73560.2
71713.4
68775.3
63440.9
54421.5
39380.9
16927.2
2285.56
2238.39
21751
37548.8
47639.7
55994
61272.7
62621.6
73678.2
71863.9
68875.7
62560.8
54626.5
39547.6
16999.2
2314
2300.34
22817.3
37640.4
48529.2
56051
61352.5
62702.9
73830.5
72042.1
68127.3
62956
54235.8
39911.6
17118.5
2289.16
2300.57
22723.8
37436.8
50083.9
58373.2
61327.1
62679.6
74025.5
72255.8
68369.2
61804.6
53296.9
37036.9
16926.6
2298.81
2300.33
23773.1
40774.8
53364.8
58280.9
61238.2
62632.4
74230.7
72480.2
68700.1
62213.4
51729.1
37391.3
7198.06
2285.89
2308.64
26584.7
45681.2
53334.7
58249.4
61193.5
62584.3
74393
72676.9
68995.8
62693.1
52017.5
39569.5
5611.93
2247.32
7671.33
34651.7
45670.5
53307.9
58219.1
61148.1
62536.7
74476.3
72782.6
69165.1
62984
52393.3
40229.2
6368.27
2267.86
2451.94
33918.9
45216
53263.5
58186
61113.2
62503.5
76062
74777.5
72068.3
67801.4
59408.3
49205.5
20511.1
2362.3
33326.6
49202.6
53910.1
59498.8
62699.3
64721
65703.2
75946.4
74629.6
71833.5
67319
58526.4
47690.8
11205.7
2318.81
35361.2
49167.4
54245.2
59430.9
62688.9
64722.7
65714.1
75764.8
74403.9
71496.6
66644.1
59404.8
45215.2
14823.9
5265.67
17975.5
38376.1
53876.3
59092.7
62606.8
64736.3
65759.7
75554.2
74146.6
71099.2
66082
58309.8
43705.6
16720.9
4385.5
2311.18
35502.4
47824.5
58831.2
62482.3
64784.1
65858.9
75354.3
73894.5
70756.9
65692.8
56896
43042.7
20027.8
2232.77
5792.22
28321
44459.1
54982.5
62648.4
64982.1
66052.6
75193.3
73713.9
70526.2
64889.3
56348.9
41980.2
18201.6
2252.97
2298.91
26462.5
42881.4
55266.4
60211.3
65364.6
66363.5
75073.8
73538.8
70204
64387.9
55874.8
40708.5
16996.6
2306.67
2285.03
26328.4
45153.2
54526.7
60718.7
65736.2
66678.5
75039.6
73481.1
70083.6
64561.1
55357.5
40077.2
17009.3
2291.36
2227.51
32038.1
49133
54833.5
61286.6
66081.3
66979.7
75109.3
73563.5
70131.2
64561.9
55317.7
40019.3
17049.3
2278.4
2284.15
37537.5
48988.6
55034.8
61562
66322.3
67192.7
75270.7
73771.9
70327.7
64535.9
55743.2
40550.7
17386.3
2269.41
7949
34798.9
47190.4
55620.1
61652.4
66440.8
67315.1
75474.7
73999.9
70807.9
65173.8
56274.9
41631
18093.4
2337.89
2339.2
31578.2
45989.4
57270.2
64422
66401.5
67320
75723.9
74307.1
71222.8
66116.7
57297.8
42391.9
18714.6
2299.69
2307.3
32876.5
49958.6
60985.8
64301.4
66337.1
67294.5
75976.8
74618.8
71712.3
66831.7
59520.8
44083.4
14716.3
2348.92
15853.3
38606.9
55995.6
61061.4
64346
66327.5
67269.4
76177.8
74875.5
72110.1
67639.5
59028.5
48509.9
12770
2353.73
37218.4
51356.6
56143.1
61246.2
64394
66310.8
67240.9
76283.3
75014.9
72338.6
68094.7
59843.6
49653.2
21120.2
3122.97
37401.3
51726.5
56010.7
61305.5
64374.9
66288.8
67216.7
79771
79240.5
78198.5
77689.9
76868.7
83376.3
118956
117032
85598.7
72668.4
68716.3
69718.2
70263
70971.2
71376.3
79646.2
79062.7
77909.6
77024.8
75495
81631.5
114878
102744
82931.3
71194.7
68313.4
69424.6
70184.5
70949.4
71380.4
79452
78791.6
77490.8
75625.3
74248.5
67412
69910.6
59314.4
55478.9
60450.6
67021.6
68705.8
70003.1
70932
71417.1
79230.8
78484.5
76935.7
74707.4
69206.6
62560.1
54389.1
23278.5
31122.2
56445.1
61258.2
68145.1
69818.5
70970.6
71515.2
79027.6
78186
76464.8
72346.1
67189.9
57300.3
34881.5
2564.42
20838.2
45336.3
56824.7
64136.9
69884.8
71130.7
71715.5
78878.2
78016.7
75074.4
71327.3
64796.2
53424.6
29771.2
2285.95
7787.8
39399
54015.1
63975.4
67283.2
71541
72061.7
78775.6
77862.5
74659.9
70728.9
63312.6
50708.4
25943.8
2324.36
2171.9
41431.6
58861.4
63178.8
67756.2
71955.8
72412.1
78766.9
77833.3
74535.5
70042.1
62496.4
49141.8
24210.8
2320.87
2318.68
104463
75764.9
64197.8
68428.4
72370.8
72772.7
78860
77943.1
74616.1
70076.3
62466.5
49050
24166.1
2310.32
2393.42
82648.3
63544.3
64107.9
68923.8
72689.7
73049
79050.4
78182.6
74887
71019.5
63230.4
50423.9
25654.9
2313.46
24815.9
54011.8
59503.6
64998.1
69262.2
72860.2
73213.4
79285.2
78450.7
76731.4
71821
64992.8
53127.1
28925.7
2261.21
20593.5
49533.8
59235.2
67358
72139.2
72879.6
73238.3
79567
78837.5
77314.7
75125.3
68111.6
60255.3
36226
2214.24
20118.3
52953.6
64246.8
70925.4
72028.3
72832.1
73213.9
79844.6
79210.3
77964.9
76160.8
74909
64423.5
55419.9
44920.5
51783.7
61420.1
69998
71238.2
72156.7
72832.7
73190
80063.6
79514.6
78451.8
77694.6
76495
83956.8
117481
117647
87090.1
74645.6
71019.4
71796.4
72264.9
72834
73166.3
80176.6
79674.6
78708.4
78240.3
77584.1
84389.6
117997
123146
90044.5
75730.2
71311.2
71999.4
72283.1
72824
73142.9
84470.9
84683.9
85091.9
87331.4
91504.4
95845.5
117872
116759
99378.8
88444.8
82089.4
79600.2
78047.8
77628.4
77492.2
84370.1
84528.6
84883.1
86943.9
90822.8
95881.9
121047
120715
100655
87607.9
81736.2
79335.7
77972.1
77613.5
77508.5
84210.6
84259.1
84548.2
85476.7
88869.8
91210.2
110257
131601
103004
85120.9
80058.5
78582.8
77813.9
77608.2
77567.8
84031
83987.3
84010.9
84495.4
83532.1
88282.1
104066
130174
98855.4
81735.6
76695
77910.3
77678.3
77680.9
77699.1
83875.1
83726.9
83503.2
81466.4
81396.5
80954.5
87483.4
120844
83140
72486.7
72354.3
74770.6
77706.5
77876
77938.3
83780.7
83549.8
81592.7
80569.6
77995.9
75314.8
75465.5
95693.9
58604.6
61894.2
67339
74094.9
75527.8
78235.5
78307.2
83733
83459.3
81270.1
80049.1
75720.5
71189.4
58915.3
2368.79
12362.8
36151.6
59901.2
71325.3
75826.9
78674.3
78697.5
83764.1
83483.8
81197.6
78610.8
74891.5
68357.1
49162.2
2279.83
2296.28
2283.87
48101
70607.4
76630.2
79163.9
79095.7
83871.6
83603.7
81306.7
78689.6
74877.1
68104.6
48651
2417.35
4809.1
2293.11
61317.2
72839.6
77474.4
79593.2
79441.6
84057.5
83838.4
81589.4
80464.8
75720.9
70440.9
55307.5
2345.65
91349.9
64927.7
71930.9
76291.9
78107.6
79808.8
79620.3
84281.6
84167.5
84025.6
81281.7
78439.6
74869.8
70338
40394.8
76682.4
76712.6
76314.8
78810.9
80305.1
79846.7
79638.6
84545
84552.5
84687.5
85380.8
83255.4
87185.8
95291.4
149787
92305.5
82242.5
80593
81142.7
80224
79774.9
79585.5
84788.7
84888.1
85295.1
86401.4
90131.4
92104.8
112956
140051
108685
88844.5
83599.5
81503.6
80248.7
79725.8
79525.7
84974.4
85181.2
85675.3
87915.8
91910
98162
120517
121297
102997
91413.6
84796
82036.3
80296.9
79702.5
79473.8
85059.1
85305.8
85824.1
88122.9
92293.3
97091.5
117813
115926
101484
91173.4
84751
82103.3
80259.9
79670.6
79430.9
88913.7
89438.1
90246.9
91947.2
95724.3
94330.9
96722.8
97694.8
94657.6
92477.4
88844.9
86351.2
84463.2
83609.2
83189.1
88888
89395.3
90257.8
92189.3
96133.3
95598.3
100125
102001
96528.9
92814.1
89235.7
86422.4
84525.4
83663.5
83251.3
88847
89272.1
90265.8
91961
95375.9
96835.3
100933
109603
98629.6
92837
88903.6
86303.1
84600.3
83768.5
83391.8
88798
89183.6
90066.3
91943.3
92811.7
97818.8
105949
116764
104351
93296.4
88098.3
86172.6
84727.9
83972.7
83621.2
88764.4
89086.2
89830.7
89954.6
92396.9
96378.9
106383
119654
105823
92450
86723
84998.7
84974.9
84291.1
83955.5
88776.8
89013.3
88455.3
89424.6
90624
94836.4
109268
129803
107241
89944.7
84830.9
85211.4
84273.3
84755.5
84403.6
88830.8
89043.7
88414.1
89209.4
89451.2
93602.9
105740
139966
108564
81057.1
81972.3
84585.4
84953.6
85295.5
84876
88921.3
89140.5
88463.2
88317
89027.1
92640.7
103855
115374
104587
72706.5
82722.4
85361.9
85941.8
85828.3
85314.1
89029.2
89260.5
88612.6
88439.9
89160.7
92617.5
103332
113194
169587
162646
97782
88636.2
86828.5
86214.6
85639.8
89165.9
89440.1
88815.8
89767.3
89897.9
93794.4
103232
116003
59221.4
128446
98764.9
90164.9
87250.8
86343.6
85752.9
89319.9
89716.8
90654
90552.2
91742.3
96102.4
110706
151606
106899
102928
94652.8
89819.9
87765.9
86339
85715.3
89481.5
89956.6
91048.5
93322.6
94324.4
101037
112435
134577
114790
99631.9
92843.4
89670.1
87408.6
86150.9
85574.5
89593
90092.8
91258
93266.5
97052.8
99931.7
106941
118353
105722
97895.6
92360.3
89319.2
87121.6
85959.9
85416.8
89657.5
90223
91231.1
93455.2
97210.4
97488.2
100408
102352
99763.5
96157.7
92140.4
89159.8
86909.5
85821.6
85282.9
89664.5
90231.1
91159.5
93064.8
96820.1
95959.1
98929.4
100014
97210.5
95055.1
91394.8
88857.6
86708.7
85710.3
85188.2
92421.7
92852.1
93534.4
93868.9
96177.7
94961.9
94728.7
96800
94542.9
93964.9
91935.1
90469.7
89130.6
88368.2
87929.3
92488
92950.1
93706.6
94426.5
97020.6
96277.1
96946.4
98441.2
95904.3
94895.5
92735.6
90824.6
89366.8
88523.2
88059.5
92612.1
93060.7
94019
95214
97545.3
98246.5
100865
105476
100181
96212.7
93670.2
91441
89773.3
88810.5