/*--------------------------------*- C++ -*----------------------------------*\
| =========                 |                                                 |
| \\      /  F ield         | OpenFOAM: The Open Source CFD Toolbox           |
|  \\    /   O peration     | Version:  v2012                                 |
|   \\  /    A nd           | Website:  www.openfoam.com                      |
|    \\/     M anipulation  |                                                 |
\*---------------------------------------------------------------------------*/
FoamFile
{
    version     2.0;
    format      ascii;
    class       volScalarField;
    location    "0.017";
    object      p_rgh;
}
// * * * * * * * * * * * * * * * * * * * * * * * * * * * * * * * * * * * * * //

dimensions      [1 -1 -2 0 0 0 0];


internalField   nonuniform List<scalar> 
449343
(
107945
108115
108408
108729
108934
108859
108237
107009
105217
103061
100827
98789.5
97141.3
95995.9
95411.3
107956
108127
108424
108749
108958
108889
108273
107052
105266
103114
100882
98842.1
97190.3
96041.5
95454.9
107976
108150
108453
108785
109003
108945
108340
107131
105358
103215
100985
98942.1
97283.1
96127.6
95537.1
108003
108181
108491
108834
109062
109019
108432
107240
105484
103353
101127
99078.7
97409.2
96243.6
95647.3
108032
108215
108533
108888
109128
109104
108535
107364
105628
103510
101289
99234.2
97551.7
96373.9
95770.6
108059
108246
108572
108938
109190
109186
108635
107485
105767
103663
101446
99384.4
97688.9
96498.8
95888.5
108078
108269
108601
108976
109236
109249
108714
107578
105877
103784
101567
99503
97797.6
96597.9
95982.2
108087
108279
108615
108994
109260
109283
108755
107629
105934
103850
101635
99567.9
97858.3
96654.6
96036.6
108084
108276
108611
108990
109255
109279
108753
107628
105935
103848
101633
99568.5
97862
96660.9
96044.3
108070
108260
108591
108964
109225
109240
108707
107575
105873
103780
101567
99507.4
97810.6
96618.4
96006.8
108048
108234
108559
108924
109175
109177
108631
107483
105768
103666
101454
99401.8
97719.1
96539.8
95935.4
108023
108205
108522
108877
109118
109103
108541
107375
105644
103532
101319
99276.5
97609.1
96443.7
95847.1
107999
108177
108487
108833
109064
109034
108455
107274
105527
103406
101192
99157.9
97504
96350.6
95760.9
107981
108156
108461
108799
109023
108981
108390
107197
105438
103310
101095
99067.3
97423
96278.2
95693.3
107971
108145
108447
108781
109000
108952
108355
107155
105390
103258
101043
99018.7
97379.2
96238.8
95656.4
107748
107965
108359
108834
109227
109369
108884
107601
105562
103070
100540
98304.9
96546.7
95347.6
94741.9
107759
107978
108375
108855
109253
109402
108923
107648
105617
103132
100603
98364
96600.6
95397
94788.8
107779
108001
108405
108895
109304
109463
108996
107738
105724
103251
100725
98478.6
96703.9
95490.8
94877.5
107805
108033
108446
108949
109371
109544
109095
107857
105871
103418
100897
98638.7
96846.2
95618.5
94997.3
107835
108068
108492
109010
109449
109636
109215
108009
106040
103614
101101
98826.3
97009.9
95763.4
95132.3
107861
108100
108535
109068
109521
109733
109330
108156
106222
103806
101301
99012.2
97170.3
95903.6
95262.2
107881
108124
108567
109112
109574
109811
109426
108271
106366
103962
101463
99160.7
97298
96015.6
95365.7
107890
108135
108581
109133
109600
109848
109475
108284
106434
104040
101545
99238.5
97367.4
96078.8
95425.2
107886
108130
108576
109126
109594
109840
109470
108333
106439
104036
101537
99234.5
97369
96083.7
95432.2
107871
108112
108551
109093
109556
109787
109408
108261
106350
103942
101440
99150.8
97303.5
96032.2
95388.3
107849
108084
108514
109043
109494
109710
109315
108142
106203
103792
101286
99011
97190.7
95940.2
95306.8
107823
108053
108473
108988
109425
109626
109205
108001
106046
103614
101106
98851.4
97058.6
95829.4
95207.1
107799
108025
108436
108938
109363
109548
109109
107884
105901
103453
100943
98705.9
96935.4
95723.8
95110.8
107780
108003
108408
108901
109315
109488
109036
107793
105793
103334
100824
98598
96842.2
95642.6
95036
107771
107992
108393
108881
109290
109456
108997
107745
105736
103271
100762
98541.3
96792.6
95598.8
94995.4
107251
107577
108198
109039
109912
110597
110539
109110
106408
103035
99778.6
97095.2
95099.3
93786.8
93137.5
107261
107589
108216
109063
109945
110637
110586
109170
106480
103117
99860.2
97169.4
95164.6
93845.1
93192.1
107280
107613
108249
109111
110011
110714
110673
109288
106622
103285
100029
97318.2
95292
93957.1
93296.2
107306
107646
108296
109178
110102
110815
110785
109450
106811
103527
100281
97536.4
95472.7
94112.2
93438.6
107335
107683
108350
109258
110206
110924
110900
109617
107044
103842
100595
97802
95687.3
94291.7
93601.2
107361
107718
108403
109333
110311
111039
111046
109828
107337
104144
100934
98078.1
95902.5
94468.6
93759.4
107381
107744
108441
109398
110385
111145
111184
110010
107579
104371
101226
98303.9
96079.1
94611.1
93886.1
107388
107755
108457
109424
110425
111212
111293
109919
107698
104485
101341
98413.1
96171
94690.6
93958.4
107383
107747
108447
109408
110405
111175
111239
110098
107692
104471
101323
98400
96167
94692.5
93964.1
107367
107725
108414
109352
110346
111092
111142
109974
107529
104324
101129
98259
96066
94620.9
93906.1
107343
107693
108366
109284
110252
110993
111015
109786
107269
104080
100834
98032.1
95903.1
94496.9
93801
107317
107659
108315
109209
110154
110888
110902
109618
107031
103770
100535
97788.9
95718.3
94351.7
93674.8
107293
107629
108271
109145
110065
110789
110784
109445
106822
103517
100279
97577
95552.3
94216.6
93554.9
107276
107607
108240
109099
110002
110712
110694
109318
106668
103338
100104
97428.1
95430.9
94114.8
93463.2
107266
107595
108224
109076
109970
110673
110646
109254
106589
103250
100018
97352.7
95367.6
94060.7
93413.9
106326
106808
107772
109194
110935
112670
113802
112086
107914
102686
98196.9
94894.1
92619.6
91194.4
90510.4
106334
106820
107789
109222
110975
112721
113853
112161
108006
102793
98303
94987.4
92699.6
91264.7
90575.5
106350
106842
107825
109280
111062
112833
113955
112329
108215
103053
98541.9
95183.2
92860
91402.1
90701.2
106372
106873
107878
109368
111188
112994
113992
112582
108463
103492
98942.9
95486.9
93095.1
91596.2
90875.8
106396
106909
107942
109474
111354
113144
113345
112513
109446
104106
99480.8
95886.4
93385.5
91826.2
91078.3
106419
106945
108011
109607
111519
112426
113450
112769
109919
105648
100164
96330.8
93691.6
92056.7
91277.8
106434
106972
108062
109698
110913
112579
113622
113036
110286
106096
101686
96692.6
93945.4
92245.6
91438.7
106440
106983
108082
109728
110942
112676
113777
113125
110507
106358
101921
96857.2
94082.5
92352.5
91529.3
106434
106971
108061
109701
110932
112654
113744
113212
110538
106380
101956
96833.2
94063.8
92350.5
91536.2
106418
106945
108013
109614
111538
112530
113627
113076
110339
106167
100487
96592.3
93910.4
92250.3
91458.9
106396
106910
107945
109485
111385
113218
113508
112825
109971
104469
99837.1
96199.1
93662.1
92079.3
91320
106373
106875
107883
109381
111219
113058
114111
112784
108771
103827
99283.9
95809.4
93396.7
91883.3
91155.4
106353
106846
107833
109296
111098
112899
114056
112497
108452
103336
98848.9
95494.5
93167.6
91705.2
91001.6
106338
106826
107800
109241
111015
112792
113947
112312
108213
103043
98584.3
95286.3
93006.1
91574.1
90885.8
106331
106816
107784
109216
110977
112742
113893
112229
108107
102921
98465.3
95185.6
92924.2
91505.6
90824.3
104779
105432
106786
108936
111944
115697
119746
117312
110190
101251
95073.6
91279.4
88894.6
87487.5
86840.6
104783
105439
106800
108963
111989
115763
119794
117370
110292
101374
95196.1
91386
88986.6
87569
86916.3
104791
105454
106831
109026
112107
115936
119926
117536
110611
101722
95502.8
91621.8
89177.7
87731.8
87064.2
104801
105474
106878
109145
112356
116257
117820
117903
112479
102679
96141.6
92028.5
89468.6
87967
87273
104811
105497
106943
109284
112606
114889
118077
118293
113220
105517
97012.5
92573.7
89845.4
88251.3
87518.9
104820
105527
107030
109548
111823
115253
118411
118711
113954
106617
99745.9
93256.4
90245.4
88547
87764.8
104823
105534
107053
108993
111928
115503
117660
118379
114741
108179
100670
95465.8
90554.2
88771.4
87961.3
104825
105543
107124
108999
112001
115604
117846
118689
115258
108757
101228
95843.4
90846.7
88903.7
88080.9
104817
105526
107039
108974
111976
115581
117834
118739
115317
108862
101255
95869.3
90719.7
88909.3
88085.3
104812
105517
107017
109530
111842
115400
117698
118509
114963
107529
100614
93635.8
90548.5
88797.7
87992.9
104800
105484
106926
109266
112604
115064
118326
118766
114019
106649
97575.5
93017.2
90207.8
88569.2
87816.7
104790
105462
106863
109129
112348
116288
117980
118315
113254
103172
96614
92448.4
89845.3
88317
87609.8
104781
105443
106820
109017
112111
115987
119975
117850
110877
102067
95882.4
92000.3
89546.3
88091.4
87418.8
104775
105431
106793
108961
112004
115836
119824
117572
110510
101654
95522.4
91734.6
89343.8
87929.1
87277.2
104772
105426
106781
108938
111966
115778
119775
117455
110389
101501
95373.3
91611.5
89244
87846
87203
102368
103140
104804
107644
112148
119215
125047
130643
117292
96401.2
89189.1
85688.6
83655
82579.7
82123.9
102364
103138
104807
107660
112188
119271
125087
130680
117293
96442.9
89283.1
85783.1
83748.5
82667.7
82207.2
102355
103134
104814
107686
112266
119416
125196
130833
117469
96710.2
89541.2
86002.9
83952.6
82847.8
82372.6
102342
103130
104835
107782
112699
117412
125522
131270
118024
101786
90294
86386.4
84275.5
83116.6
82610.2
102320
103110
104831
107889
111562
117806
126118
129392
120187
103652
94413.1
87039.8
84673.3
83435.8
82893.5
102301
103088
104904
107562
111778
117066
124620
129071
121674
107401
95869.7
90219.6
85161.2
83764.4
83179.7
102278
103050
104897
107623
111969
117176
123963
129755
123453
109913
98643.8
91051.5
85508.1
84007.8
83404.4
102260
103015
104965
107691
111356
116756
124150
130279
124565
111053
99530.3
91576.1
87819.7
84114.9
83534.4
102266
103037
104878
107647
111329
117196
124125
130346
124832
111364
99720.9
91598.7
85764
84189.8
83562.8
102284
103065
104869
107520
111858
117097
123894
129939
124114
110759
99093.7
91227.5
85585.8
84087
83465.4
102296
103080
104788
107825
111518
117920
124427
130158
122225
108103
96004.1
87674.4
85149.4
83835.6
83258.7
102316
103100
104794
107723
112611
117445
125714
131700
118961
103187
90943.6
86924.1
84743
83541.6
83014.6
102331
103106
104779
107640
112207
119371
125320
131100
118035
97133
90006.5
86457.6
84391.9
83273.4
82790.8
102343
103114
104779
107626
112149
119246
125136
130836
117550
96739.7
89656.1
86184.2
84162.3
83086.8
82627.8
102349
103119
104779
107618
112123
119210
125095
130764
117466
96643.2
89510.8
86057.4
84052.6
82992.9
82543.4
98877.7
99619.3
101270
104263
109335
116351
132991
163200
121240
88653.8
78565.2
77362.9
76711.4
76528.8
76491.1
98862.5
99603.4
101255
104249
109333
116364
133002
163200
120703
88333
78525.9
77403.5
76792.2
76616.2
76577.5
98827
99564.5
101210
104183
109243
116383
132993
163260
120628
88401.3
78601.8
77571.9
76987.7
76799.5
76752.6
98781
99509
101145
103987
108730
116814
133108
163350
120950
89180.6
82728.7
77769.6
77307.1
77078.4
77008.8
98700.5
99406.8
100944
104130
108767
116005
130345
163638
123399
94828.1
83788.3
80911.9
77648.3
77416
77316.2
98611.8
99235.9
101490
104174
108556
116011
129075
159239
131298
99966.3
88064.1
81906.8
80129.8
77747.5
77632.1
98571.6
99177.7
101478
104152
108568
115610
129024
159840
136247
104054
91407.6
84732.9
80652
78069.6
77895.1
98518.3
99128
101524
104154
108531
115521
128860
160027
140262
107030
93025.6
85542.8
81141.1
78239.3
78011.1
98550.5
99155.9
101463
104148
108512
115428
128620
159510
141303
107674
93382.4
85751.4
81181.6
78284.8
78086.8
98588.6
99198.9
101458
104060
108467
115381
128501
158957
138896
105716
92365.1
85249.9
80947.9
78134.6
77973.4
98662.4
99355.5
100865
104030
108598
115774
128585
158598
133392
101814
89083.6
82319.2
78243.3
77898.8
77751.1
98740
99460.7
101077
103884
108492
116529
130017
163212
123181
95815.6
84183.8
78428.9
77868.7
77581.2
77485.2
98791.1
99520.8
101150
104097
109121
116267
132842
163182
121137
89240.8
79141.1
78104.2
77501.4
77296.5
77241.4
98831.6
99566.2
101205
104184
109248
116295
132912
163221
120667
88576.1
78926.5
77852.3
77265.9
77100.9
77066.3
98850.2
99586.5
101228
104209
109271
116301
132968
163276
120968
88649.7
78870.2
77757.1
77159.2
77003.6
76976.9
94255.8
94709.7
95715.4
97546.8
100534
107424
114944
112474
36825.1
59051.3
63407.7
66499.3
68505.2
69787.7
70378.7
94229.1
94680.1
95681.1
97501.1
100499
107390
114933
112456
27377.7
57678.6
63112.6
66467.1
68569.1
69870.8
70465.7
94170.3
94609.2
95601.3
97435.7
100385
107287
114859
112433
26708.3
57353.8
63204.7
66692.5
68780.7
70063.6
70650.3
94082.5
94489.8
95453.7
97106.3
101741
106836
114588
112255
27283.2
58072.9
65303.4
67285.8
69180.2
70370
70929.7
93955.4
94321.1
95181.7
98302.3
101433
107240
115299
111829
29538.4
63678.3
68377.8
69686.1
69776.4
70790.6
71275
93808.2
94148.5
96386.7
98127.1
101906
107421
114901
110951
47931.9
70182.6
72249
70851.6
71820.1
71277.7
71632.6
93743.7
94066.8
96325.7
97986.9
102115
107204
114422
109588
78165.2
78857.5
75604.9
73451.3
72360.9
71667.2
71942.2
93704.9
94011.9
96256.3
98666.1
102025
106990
113863
107600
89916.6
84275.2
77886.4
75371.9
72786.1
71872.7
72095.5
93723
94039.7
96242
98628.2
101968
106850
113460
106011
90212.6
84885.3
78233
75607.6
72845.9
71886
72143.2
93772.1
94100.7
96294.7
97915.3
101963
106865
113519
106407
82439.3
81176.2
76690.6
74010.1
72621.9
71682.6
72003.2
93910.1
94259.9
95087
98074.1
101732
107038
114032
108632
59659.6
73380.9
73833.3
71211.9
70400.8
71315.5
71764
94037.2
94430.4
95363.6
96967.2
101416
106145
113618
110653
30446.1
63179.6
66881.1
68010.8
69807.6
70937.9
71473.8
94130.9
94556.9
95522.1
97311.9
100218
106811
114318
111662
26122.1
58022.2
63740.2
67277.2
69356.4
70631.1
71214
94196.8
94638.1
95620.7
97416.9
100380
107195
114683
112161
25621
57473.8
63479
66944.1
69101.9
70428.4
71032.8
94228.6
94674.3
95664.6
97475.8
100439
107309
114828
112348
27298.3
58097.8
63602.7
66894.6
69004.5
70334
70943.5
88785.9
88710.6
88536.3
88270.1
88274.7
92499.8
96357.7
109629
40228.7
37627.6
49105.8
56055.7
60658.8
63388
64621.7
88753.8
88674.6
88496.4
88225.2
88246.7
92452.4
96319.2
109455
7456.12
35847.3
48734
55992.3
60715.1
63468.3
64709.2
88687.7
88599.1
88414.5
88180.3
88176.1
92322.7
96200.4
109358
4905.43
35414.7
48909.8
56256.4
60951.3
63681
64905.6
88594.5
88475
88286.8
88186.1
91005.3
92209.7
95918.9
109169
3031.04
35920.9
49643.5
57003.9
61418.2
64038.5
65214.5
88472.3
88325.3
88173.3
90202.6
90934.4
93981.6
96862.3
109014
2463.52
37157.8
51479.6
58631.8
62134.2
64548.5
65614.4
88341.6
88253.2
89798.2
90033
92114.4
94645.8
96532.7
108383
8637.74
41632.2
54113.3
59758.9
63565.7
65118.7
66035.7
88287.3
88205.3
89631.4
89925.9
92662.9
94382.3
96147.8
107885
2711.23
46961.8
56756.2
61395.6
64163.7
65527.9
66368.8
88253.4
88160.1
89541.9
90896.9
92522.4
94160.3
95773.1
107304
12493.5
49687.8
58329
62526.4
64577.9
65758.8
66546.4
88265.9
88176.8
89523.1
90858.9
92459.3
94040
95548
106974
2183.83
46760.2
58208.6
62652.9
64622.5
65758.8
66579.6
88305
88205.1
89584.6
89879.2
92482
94075.6
95600.1
107090
2274.62
44690
56988.7
61759.1
64345.8
65546.8
66432.1
88428
88261.5
88073.4
89917.5
91936.1
94276.7
95912.9
107585
2336.13
42887.7
54991.3
59991
62780.5
65110.3
66153.4
88552.6
88414
88184.6
88020.2
90772.6
91941.3
95458.8
108421
3651.51
38196.3
51250
57725.2
62093.7
64668.7
65829.9
88656.9
88552.1
88334.3
88050.2
87991.2
91990.6
95659
108767
2619.78
36128.3
49508.1
56892.1
61591.8
64329
65556.2
88734.3
88642.6
88440.1
88135.5
88118.1
92202.1
95992.8
109117
2634.52
35688.1
49113.7
56541.4
61332.7
64119.8
65374.4
88774.1
88688
88493.3
88199.9
88174.5
92350.7
96174.8
109307
4203.52
35947.8
49297.1
56502.5
61246.3
64033.5
65290.2
83181.4
82519.1
81143.8
78962
78658.6
77614
80260
1768.77
26285.5
40676.6
49198.9
55093.5
58631.7
60280.2
83148.5
82482.9
81104.4
78922.6
78614.3
77566.4
80214
2190.15
26467.3
40643.3
49260.3
55168.5
58714.4
60366
83087.4
82419.4
81028.3
78856.2
78590.8
77503.8
80095.6
2211.59
26293.8
40904
49498.3
55390.3
58923.3
60557.5
83015.1
82338.6
80937
78941.5
78815.9
77361
79850.7
2230.64
26564
40260
50090.3
55783.4
59268.7
60857
82937.8
82255.6
80979.7
80941
79299.1
79387.5
80439.8
2249.74
25055
40544.7
50364.8
56357.1
59747.2
61249.2
82860.4
82298.3
82427.2
81125.2
80559.7
80240.1
80249.5
2267.41
26334
41338.3
51019.5
56856.5
60186.2
61672.1
82823.6
82274.7
82307.1
81109.8
81236.6
80083.4
79989.5
2268.41
27030.3
42351.4
51556.1
57350.6
60506.1
61976.6
82791.4
82240.6
82236.4
81946
81212.4
79904.5
79709.6
2325.63
26153.8
42663
52011.9
57576.9
60719.8
62156.8
82804.7
82244.9
82218.2
81924.3
81149.3
79796.6
79555.2
2282.62
24109.9
42317.6
52034.1
57642.6
60741.7
62209.2
82831.2
82255
82271.1
81036.2
81057.2
79789
79565.1
2245.12
23761.9
41913
51705.5
57546.3
60637.6
62112.7
82904.8
82196.2
80865.5
80747.4
80284.9
79847.1
79708.6
2327.22
25945.3
41505
51247
57017.3
60368.1
61857.9
82991.6
82291.5
80835.5
78760.9
78605.6
77109.1
79029.4
2387.88
26189.5
41283.3
50810.4
56519.3
59984.6
61567.5
83083.5
82396.5
80965.6
78730.1
78395.5
77148.5
79564.4
2363.33
26766.3
41566.9
50213.6
56138.9
59687
61325.6
83162.6
82482.3
81074.7
78851.5
78524.7
77350.4
79878.5
2377.43
26783.3
41261.9
49975.4
55931.5
59503.6
61166.4
83207
82532.6
81133.4
78919.9
78564.3
77482.2
80083.5
2425.59
26937.1
41320.7
49907.8
55859.2
59431
61094.4
78367.9
77161.5
74630.9
70215.2
67935.2
60323.5
56109.1
7047.62
2185.34
25263.1
37704.3
46644.8
52710.7
56400.1
58166.8
78329.2
77117.5
74576.4
70144.7
67865.6
60246.3
56014.7
2655.41
2190.69
25042.9
37777.1
46746.7
52782.4
56476.9
58242.2
78259.6
77043.3
74470.4
69991.7
67756.5
60106.4
55915.9
2442.32
2211.22
21559.2
38154.8
46922.5
52960
56648.8
58403.7
78182.1
76962.2
74312.6
69866.1
67620.3
59906.8
55749.9
2429.7
2247.17
21793.9
35820.3
47212.1
53223.2
56920.3
58647.6
78112.7
76867.1
74156.7
72764.8
67311
62767.6
57634.5
2355.65
2275.17
20055.8
35043.2
46114.4
53585.1
57298.4
58967.7
78045.9
76801
76047.7
72519.1
69120.1
63947.9
57769.6
2351.87
2272.13
20545.4
34861.6
46431.2
53092.7
57634.4
59327.7
77996.5
76731.8
75952.4
72264.4
69810.8
63693
57470.9
2231.8
2362.65
20137.4
35011.8
45992.9
53416
57885.4
59587.7
77961
76692.7
75869.9
73595
69656.8
63447
56978.5
3593.33
2248.84
18178.4
34776.7
45817.1
53618.2
58080.8
59769.1
77985
76704.2
75869.4
73585.7
69591.7
63329.3
56807.2
2427.61
2254.96
17543.6
34617
45860
53706.6
58154.7
59857.4
78033
76761.6
75954.1
72209.7
69647.9
63335
56797.2
2408.21
2231.01
18135.2
34751.1
46201.9
53694.2
58149.5
59839.2
78106.7
76831
74045.7
72518.5
68885
63440.2
56877.4
3686.58
3690.08
20238.6
34978.1
46843.8
54340.9
58021.8
59682.9
78198.4
76952.3
74237.4
69680.6
67216.9
59367.7
55106.7
2572.44
2363.42
21249.1
36713.8
48067.5
54094.3
57775
59497.1
78307.8
77070.4
74451.7
69895.2
67485.2
59676.9
55322.1
2327.27
2373.33
22039.8
38906.3
47791.8
53881.4
57579.9
59335.5
78404.7
77177.9
74605.2
70126.4
67761.8
60009.2
55634.7
2364.3
2389.77
25542.6
38590.4
47650.7
53740.8
57452
59223.3
78459.9
77242.4
74688.6
70242.8
67910
60266.5
56008.1
2724.4
2419.8
26054.7
38553.8
47583.2
53693.4
57398.8
59171.6
75183.4
73554.3
70097.1
63994.3
53463.6
43614.8
18697.6
2324.48
2223.57
26961.2
38876.9
47629.9
53371.2
56858.8
58529
75128.9
73489.3
70004.2
63862.7
53280.7
43407.8
18741.1
2275.32
2197.88
26948.9
39132.1
47711
53423.8
56918.6
58587.8
75030.6
73379.2
69848.6
63664.3
53013.1
43025.5
18759.7
2265.08
2216.24
22014.8
39219.7
47796.6
53534.3
57038.2
58709.8
74912
73258.3
69634.7
63445.9
57473.7
42726.7
18793.2
2277.09
2240.81
21778.8
35493.5
47875.9
53673.8
57216.7
58890.2
74800.5
73127.2
69442.5
65971.9
57318
46737.5
25964.9
2289.46
2266.31
19040.6
33977.6
45535.1
53912.3
57507.7
59140.2
74706.1
72982.4
71089.5
65734.8
59295.7
48262.1
26394.3
2283.26
2272.98
19471.1
33326.3
45760.7
52499.7
57809.9
59448.9
74629.1
72868
71010.3
65447.3
60010.4
47753
25563.2
2290.58
2246.05
19141.5
33318.5
44761.1
52791.9
58062.1
59697.9
74590.7
72822.5
70926.7
66814.4
59742.4
47420.7
25097.2
2296.34
2268.19
16566.7
33137.3
44323.6
53048.6
58279.7
59903.8
74634.3
72858.4
70933.3
66796.9
59676.8
47316.7
24997.8
2293.14
2251.79
17007.7
33305.7
44483.5
53203.4
58407.6
60033.4
74726.6
72975.9
71032.9
65419.9
59812.1
47370.9
25045.4
2296.09
2275.68
18295.3
33659.9
45254.7
53252.5
58467.2
60084.4
74844.7
73140.4
69371.4
65763.4
58980
47521.8
25085.8
2284.16
2359.22
19580
33912.7
46542.2
54917.7
58424.4
60022.9
74996.6
73315.3
69617.5
63294.7
57057.4
42131.1
19604.5
2276.63
2308.73
20645.1
36595.9
49048.1
54807.2
58292.1
59938.2
75162.7
73491
69914.7
63649.5
52873.6
42564.7
18179.8
2257.98
2381.46
22438.7
40242.6
48960.5
54717.2
58201.5
59859
75299.4
73648.7
70137.8
63958.4
53338.4
43167.2
18487.2
2247.57
2396.31
27537.7
40205.5
48884.2
54640.8
58133
59796.5
75376.2
73740.9
70269.7
64150.6
53624.6
43649.1
18980.4
2260.05
2425.54
28017.7
40036.8
48838.1
54612.4
58100.2
59766.4
74284.4
72588.1
68967.9
62789.4
52161.7
40099.7
7484.84
2320.11
2179.13
32513
43670.1
51815
56750.7
59720.8
61135.2
74208.4
72493.9
68820.9
62531.1
51868.4
39287.5
6475
2294.25
10526.3
33855.3
44349.6
51888.6
56789.6
59762
61177.8
74075.7
72338.1
68590.2
62173.1
51803.3
38262
7684.09
2311.95
2217.6
26033.8
44271
51835.3
56817.5
59834.6
61266.7
73915.4
72169.3
68351
61925.9
53934.4
37630.3
9195.09
2265.57
2236
25391.8
39271.2
51783.2
56851.6
59945.8
61404.9
73763.3
72002.5
68167.2
63248.6
53484.5
40401.1
21707.3
2363.52
2258.93
21208.8
36907.9
48552.2
57039.7
60188
61621.9
73640
71852
68964.1
62869.4
54533.3
40735.9
19396.6
2231.94
2272.32
21009.5
35843.7
48791.9
55013
60512
61926.1
73545.4
71712.4
68835.4
62547.2
54814.7
39832.7
16859.3
2245.35
2310.57
20476.2
36223.7
47657.7
55386.4
60824.2
62207.4
73514.9
71665.6
68759.8
63461.1
54478.4
39456.6
17062
2274.48
2299.86
19672.5
36920.6
47339.5
55780
61104.5
62463.4
73579.8
71733.1
68790
63453.1
54432.6
39391.9
16938.3
2291.05
2238.67
21762
37559.9
47650.7
56008.7
61292.3
62641.2
73717.4
71903.2
68910.1
62595.1
54657.2
39578.3
17029.8
2315.14
2317.23
22848
37671
48561.1
56085.3
61391.7
62742.2
73889.4
72101
68186.2
63009.9
54287.3
39961.9
17168.7
2291.14
2337.62
22774.1
37487
50137.9
58432.1
61386
62738.5
74104
72334.3
68447.7
61883.1
53370.5
37110.5
16997.8
2300.7
2332.14
23844.2
40848.3
53443.2
58359.4
61316.7
62710.9
74328.8
72578.3
68798.2
62311.5
51827.2
37484.5
7291.26
2286.29
2391.76
26677.9
45779.3
53432.8
58347.5
61291.6
62682.4
74510.8
72794.6
69113.6
62810.8
52135.2
39687.2
5724.75
2247.6
7789.03
34769.4
45788.2
53425.6
58336.8
61265.8
62654.4
74613.6
72919.9
69302.4
63121.4
52530.7
40366.6
6500.7
2268.24
2588.85
34056.3
45353.3
53400.8
58323.4
61250.5
62640.9
75924.7
74640.2
71931
67664.1
59271
49068.2
20373.8
2239.81
33189.2
49065.3
53772.8
59361.5
62561.9
64583.7
65565.9
75828.7
74511.9
71715.8
67201.3
58408.7
47573.1
11088.1
2246.22
35243.5
49049.7
54127.5
59313.1
62571.2
64605
65596.4
75666.7
74305.8
71398.5
66546
59306.7
45112.2
14720.9
5162.72
17872.5
38273
53778.2
58994.6
62508.7
64638.2
65661.6
75475.7
74068.1
71020.7
66003.5
58226.4
43622.2
16637.5
4299.66
2238.18
35419
47741.1
58752.7
62403.9
64705.7
65780.4
75295.4
73835.6
70698
65629
56832.2
42976.5
19960.4
2231.88
5724.78
28253.6
44392.9
54918.7
62589.5
64923.3
65993.7
75154
73674.6
70482.1
64845.2
56302.3
41932.4
18153.7
2252.24
2277.5
26414.7
42833.6
55222.3
60167.1
65325.3
66324.3
75054.1
73519.2
70179.5
64363.3
55846.6
40680.3
16968.4
2303.25
2283.3
26300.2
45125
54499.7
60694.2
65716.6
66658.9
75039.6
73481.1
70078.7
64553.7
55348.9
40068.6
17000.7
2291.24
2226.13
32029.5
49124.4
54825
61281.7
66081.3
66979.7
75128.9
73583.1
70145.9
64574.1
55328.8
40030.3
17060.3
2279.06
2289.43
37548.5
48999.6
55045.8
61576.7
66341.9
67212.3
75310
73811.1
70362
64570.2
55773.9
40581.3
17417
2270.4
7979.65
34829.6
47221.1
55652
61686.7
66480.1
67354.3
75533.6
74058.8
70866.7
65227.8
56326.4
41681.3
18143.7
2341.74
2386.44
31628.5
46039.7
57324.2
64480.8
66460.3
67378.8
75802.4
74385.6
71301.3
66195.1
57371.4
42465.5
18785.7
2302.82
2365.84
32947.6
50032.1
61064.3
64379.9
66415.6
67373
76074.9
74716.9
71810.4
66929.8
59618.9
44176.6
14809.5
2364.59
15946.5
38700.1
56093.7
61159.5
64444.1
66425.6
67367.5
76295.5
74993.2
72227.8
67757.2
59146.3
48627.6
12887.6
2451.44
37336.2
51474.3
56260.8
61363.9
64511.8
66428.5
67358.6
76420.7
75152.2
72475.9
68232.1
59980.9
49790.5
21257.5
3258.5
37538.6
51863.8
56148.1
61442.8
64512.3
66426.2
67354.1
79633.7
79103.2
78061.1
77552.6
76731.3
83239
118819
116895
85461.4
72531
68579
69580.8
70125.7
70833.9
71238.9
79528.5
78945
77791.9
76907
75377.3
81513.8
114761
102627
82813.6
71077
68195.7
69306.8
70066.8
70831.7
71262.7
79353.9
78693.5
77392.7
75527.2
74150.4
67309
69807.6
59211.4
55375.9
60347.6
66923.5
68607.7
69905
70833.9
71319
79152.3
78406
76857.3
74628.9
69123.2
62476.7
54305.8
23192.6
31036.4
56361.7
61174.8
68066.6
69740
70892.1
71436.7
78968.7
78127.1
76405.9
72282.3
67126.1
57234.1
34814.1
2545.83
20770.7
45268.9
56758.5
64073.1
69826
71071.8
71656.7
78839
77977.4
75030.2
71283.2
64749.6
53376.8
29723.4
2285.52
7739.98
39351.1
53967.3
63931.3
67239.1
71501.7
72022.5
78756
77842.9
74635.4
70704.4
63284.4
50680.2
25915.6
2322.69
2170.78
41403.4
58833.2
63151.8
67731.6
71936.2
72392.5
78766.9
77833.3
74530.6
70034.7
62487.8
49133.2
24202.3
2320.82
2318.43
104454
75756.4
64189.2
68423.5
72370.8
72772.7
78879.7
77962.7
74630.8
70088.6
62477.5
49061.1
24177.2
2313.7
2395.76
82659.3
63555.3
64118.9
68938.5
72709.4
73068.6
79089.7
78221.9
74921.3
71053.8
63261
50454.6
25685.5
2316.98
24846.6
54042.5
59534.3
65029.9
69296.5
72899.4
73252.6
79344.1
78509.6
76790.3
71875
65044.3
53177.4
28975.9
2261.87
20643.8
49584
59285.5
67411.9
72198.1
72938.5
73297.1
79645.5
78916
77393.2
75203.8
68185.2
60328.9
36297.2
2227.27
20188.2
53024.7
64320.4
71003.9
72106.8
72910.6
73292.4
79942.7
79308.4
78063
76258.9
75007.1
64516.7
55513.1
45013.7
51876.9
61513.3
70096.1
71336.3
72254.8
72930.8
73288.1
80181.4
79632.4
78569.5
77812.3
76612.8
84074.5
117599
117764
87207.9
74763.3
71137.1
71914.1
72382.6
72951.7
73284.1
80314
79811.9
78845.7
78377.7
77721.5
84527
118135
123283
90181.8
75867.6
71448.6
72136.8
72420.4
72961.4
73280.2
84333.6
84546.5
84954.6
87194
91367
95708.2
117735
116621
99241.4
88307.4
81952
79462.9
77910.5
77491.1
77354.9
84252.4
84410.9
84765.3
86826.2
90705.1
95764.2
120929
120597
100537
87490.2
81618.4
79218
77854.3
77495.8
77390.8
84112.5
84161
84450.1
85378.6
88771.7
91107.1
110154
131498
102901
85017.9
79960.4
78484.7
77715.8
77510.1
77469.7
83952.5
83908.9
83932.4
84416.9
83448.7
88198.7
103983
130088
98769.5
81652.3
76611.6
77831.8
77599.8
77602.5
77620.6
83816.2
83668.1
83444.3
81402.6
81332.7
80888.3
87416
120777
83072.6
72419.2
72288.1
74706.8
77647.7
77817.1
77879.5
83741.5
83510.6
81548.6
80525.5
77949.3
75267
75417.7
95646
58556.8
61846.3
67291.2
74050.8
75483.6
78196.2
78268
83713.4
83439.7
81245.6
80024.6
75692.3
71161.2
58887.1
2342.42
12334.6
36123.4
59873
71298.3
75802.3
78654.7
78677.9
83764.1
83483.8
81192.7
78603.4
74882.9
68348.6
49153.7
2279.43
2288.8
2281.77
48092.5
70598.8
76625.3
79163.9
79095.7
83891.2
83623.3
81321.5
78701.8
74888.1
68115.6
48662
2417.62
4820.13
2296.03
61328.2
72850.6
77489.1
79612.8
79461.2
84096.7
83877.6
81623.7
80499.1
75751.5
70471.5
55338.2
2364.42
91380.5
64958.3
71961.6
76323.8
78141.9
79848
79659.5
84340.4
84226.3
84084.5
81335.7
78491.1
74920.1
70388.3
40445.1
76732.6
76762.9
76365.1
78864.9
80363.9
79905.6
79697.4
84623.5
84630.9
84766
85459.2
83328.9
87259.4
95362.5
149857
92375.4
82313.7
80666.6
81221.2
80302.5
79853.4
79664
84886.8
84986.2
85393.2
86499.5
90229.5
92198
113049
140144
108778
88937.7
83697.6
81601.7
80346.8
79823.9
79623.8
85092.1
85299
85793.1
88033.5
92027.7
98279.7
120635
121414
103115
91531.4
84913.7
82154
80414.6
79820.3
79591.5
85196.4
85443.1
85961.4
88260.3
92430.7
97228.8
117951
116063
101621
91310.7
84888.3
82240.6
80397.2
79807.9
79568.3
88776.3
89300.8
90109.6
91809.8
95586.9
94193.6
96585.4
97557.4
94520.3
92340.1
88707.6
86213.8
84325.9
83471.8
83051.7
88770.3
89277.6
90140
92071.6
96015.6
95480.6
100007
101884
96411.1
92696.4
89118
86304.7
84407.6
83545.8
83133.6
88748.9
89174
90167.7
91862.9
95277.8
96732.3
100830
109500
98526.6
92734
88805.5
86205
84502.2
83670.4
83293.7
88719.5
89105.1
89987.8
91864.8
92728.3
97735.4
105866
116679
104265
93213
88014.9
86094.1
84649.5
83894.2
83542.7
88705.5
89027.4
89771.8
89890.8
92333.1
96312.7
106316
119586
105755
92382.6
86656.8
84935
84916
84232.2
83896.6
88737.6
88974
88411.2
89380.4
90577.4
94788.5
109220
129755
107193
89896.9
84783.1
85167.3
84229.2
84716.3
84364.3
88811.1
89024.1
88389.6
89184.9
89423
93574.7
105711
139938
108535
81028.9
81944.1
84558.5
84929.1
85275.9
84856.4
88921.3
89140.5
88458.2
88309.7
89018.5
92632.1
103847
115365
104579
72697.9
82713.9
85353.3
85936.9
85828.3
85314.1
89048.8
89280.1
88627.3
88452.1
89171.7
92628.6
103343
113205
169598
162657
97793
88647.2
86843.2
86234.2
85659.4
89205.2
89479.3
88850.1
89801.6
89928.5
93825.1
103262
116033
59252.1
128477
98795.6
90196.8
87285.2
86382.8
85792.2
89378.8
89775.7
90712.9
90606.1
91793.8
96152.7
110757
151656
106950
102978
94703.1
89873.9
87824.7
86397.9
85774.1
89560
90035
91127
93401
94397.9
101111
112506
134647
114860
99703.1
92916.9
89748.5
87487.1
86229.4
85653
89691.1
90190.9
91356.1
93364.6
97150.9
100025
107034
118446
105815
97988.8
92458.4
89417.3
87219.7
86058
85514.9
89775.2
90340.8
91348.8
93572.9
97328.1
97605.9
100526
102470
99881.2
96275.5
92258.2
89277.6
87027.2
85939.3
85400.6
89801.9
90368.4
91296.9
93202.1
96957.4
96096.4
99066.7
100151
97347.9
95192.4
91532.1
88994.9
86846.1
85847.7
85325.6
92284.4
92714.8
93397.1
93731.6
96040.3
94824.6
94591.3
96662.7
94405.6
93827.6
91797.8
90332.3
88993.3
88230.9
87792
92370.3
92832.4
93588.9
94308.8
96902.8
96159.4
96828.7
98323.5
95786.5
94777.8
92617.9
90706.8
89249.1
88405.5
87941.8
92514
92962.6
93920.9
95115.9
97447.2
98143.5
100762
105373
100078
96109.7
93572.1