/*--------------------------------*- C++ -*----------------------------------*\
| =========                 |                                                 |
| \\      /  F ield         | OpenFOAM: The Open Source CFD Toolbox           |
|  \\    /   O peration     | Version:  v2012                                 |
|   \\  /    A nd           | Website:  www.openfoam.com                      |
|    \\/     M anipulation  |                                                 |
\*---------------------------------------------------------------------------*/
FoamFile
{
    version     2.0;
    format      ascii;
    class       volScalarField;
    location    "0.034";
    object      p;
}
// * * * * * * * * * * * * * * * * * * * * * * * * * * * * * * * * * * * * * //

dimensions      [1 -1 -2 0 0 0 0];


internalField   nonuniform List<scalar> 
449343
(
103638
103766
103980
104180
104261
103988
103183
101770
99803.3
97493.2
95133
92998.2
91281.4
90092.9
89487.7
103619
103748
103961
104162
104243
103969
103163
101751
99786.5
97478.9
95120.5
92986
91268.5
90079.1
89473.4
103601
103730
103944
104145
104225
103949
103142
101732
99771.4
97469.2
95114.8
92981
91262
90070.9
89464.2
103583
103713
103928
104129
104207
103926
103119
101710
99756
97461.9
95114.8
92982.6
91261.5
90067.7
89459.4
103567
103697
103913
104114
104190
103904
103095
101687
99740.3
97457.3
95119.5
92989.2
91265.3
90068.1
89457.8
103549
103681
103898
104099
104173
103883
103073
101669
99730.6
97457.5
95127.3
92998.4
91271
90070
89457.5
103531
103663
103882
104083
104155
103864
103055
101653
99722.5
97458.3
95131.8
93005.4
91274.6
90070.2
89456
103511
103644
103863
104064
104137
103847
103035
101635
99706.7
97451.2
95128.7
93003
91271
90065.4
89450.6
103489
103622
103841
104044
104119
103831
103025
101627
99699.6
97438.8
95114.1
92988.6
91258.2
90053.9
89439.7
103465
103598
103817
104021
104100
103816
103012
101615
99682.9
97414.9
95088.6
92961.9
91235.5
90034.8
89422.2
103440
103573
103792
103997
104079
103802
103001
101603
99664.9
97388.7
95056.3
92929.4
91207.3
90010.9
89400.8
103415
103547
103766
103973
104058
103788
102991
101592
99648.6
97363.5
95023.1
92895.4
91176.9
89984.4
89376.6
103391
103523
103742
103950
104036
103772
102977
101579
99629.6
97337.4
94990.8
92862.4
91146.9
89957.7
89351.7
103369
103500
103719
103927
104015
103754
102961
101561
99608.4
97311.4
94961.3
92832.9
91119.4
89932.3
89327.7
103347
103479
103697
103906
103994
103734
102942
101542
99587.3
97287.9
94936.4
92808.1
91095.6
89909.6
89305.6
103495
103671
103984
104338
104593
104542
103872
102394
100172
97522
94862.8
92529.2
90702.7
89461.1
88835.2
103476
103652
103966
104320
104575
104523
103851
102374
100155
97509.4
94852.1
92518
90689.9
89447.1
88820.7
103457
103634
103950
104305
104559
104503
103829
102355
100143
97504.3
94851.4
92515.6
90684.1
89438.7
88810.9
103439
103618
103935
104291
104544
104479
103799
102323
100125
97501.5
94859.2
92522
90685
89435.4
88805.7
103422
103602
103922
104279
104529
104448
103768
102294
100092
97502.5
94875.9
92536.2
90691.5
89436.2
88803.8
103405
103587
103909
104269
104518
104428
103741
102274
100089
97510.4
94897.2
92555
90701.2
89439.2
88803.8
103386
103570
103895
104255
104499
104415
103725
102260
100085
97524
94926.4
92574.2
90709.1
89441.4
88803.2
103366
103550
103876
104239
104483
104398
103703
102194
100063
97516.4
94927.5
92575.7
90707.5
89438.2
88798.8
103343
103527
103854
104216
104463
104383
103696
102235
100065
97509.1
94913.9
92561.1
90695.5
89427.3
88788.8
103319
103502
103827
104191
104444
104362
103683
102224
100046
97473.8
94864.7
92524.3
90670.7
89408.2
88772.5
103293
103475
103799
104162
104419
104347
103677
102214
100021
97440.5
94819.7
92483.1
90639.4
89384.2
88751.6
103268
103449
103771
104134
104394
104341
103673
102210
100022
97409.3
94774.2
92441.4
90606.4
89357.5
88727.9
103244
103424
103744
104107
104370
104327
103665
102205
100005
97378
94733.3
92403
90574.5
89330.6
88703.4
103222
103401
103720
104082
104347
104308
103649
102187
99981.5
97346.5
94698.1
92370.1
90545.9
89305.1
88679.5
103201
103379
103698
104060
104325
104288
103631
102168
99959.7
97321
94670.9
92344
90521.6
89282.4
88657.6
103127
103411
103951
104665
105385
105895
105629
103986
101085
97542.4
94149.1
91364.7
89300.1
87945.8
87277.1
103107
103392
103933
104649
105369
105877
105607
103965
101069
97533.7
94142.1
91355
89287.3
87931.2
87261.8
103088
103374
103918
104637
105359
105861
105579
103946
101059
97542
94153.6
91357.7
89282.1
87921.9
87250.7
103068
103357
103906
104630
105354
105835
105527
103911
101016
97551.9
94185.4
91375.2
89285.2
87917.9
87244
103049
103341
103897
104627
105346
105788
105433
103809
100941
97588.8
94232
91404.9
89296.7
87919
87241.2
103031
103328
103892
104627
105354
105755
105387
103790
100947
97628.2
94299.8
91445.8
89313.1
87923.7
87241.2
103012
103311
103879
104625
105331
105750
105364
103774
100948
97656.8
94433.5
91492.6
89332.6
87929.3
87241.9
102991
103292
103862
104612
105323
105749
105378
103775
100934
97657
94440.4
91501.3
89336.5
87930.2
87240.3
102967
103267
103837
104585
105294
105719
105338
103754
100936
97650.1
94430.4
91488
89326.4
87921.3
87232.8
102942
103240
103807
104547
105281
105690
105333
103748
100919
97606.6
94283.8
91429.9
89295
87903.1
87219
102916
103210
103770
104506
105235
105689
105348
103739
100885
97543.3
94193.9
91368.8
89259.3
87879.5
87200.3
102891
103182
103736
104468
105201
105698
105404
103806
100927
97475.7
94117.4
91310.9
89221.3
87853
87178.3
102867
103156
103706
104434
105167
105684
105419
103803
100933
97428.9
94050
91259.4
89185.9
87826.1
87154.8
102845
103133
103680
104404
105137
105660
105407
103783
100903
97381.7
94000.4
91219.6
89155.3
87800.7
87131.7
102824
103111
103657
104381
105112
105639
105390
103764
100880
97351
93968.3
91190.9
89130.3
87778
87110.1
102407
102848
103728
105022
106600
108173
109066
107106
102711
97298.3
92661.8
89252.7
86908
85441.4
84738.4
102385
102827
103710
105007
106587
108159
109034
107082
102691
97293.6
92658
89242.3
86893.2
85424.8
84721.2
102362
102807
103695
105002
106589
108157
109005
107079
102713
97338
92686.1
89246.5
86885
85412.1
84706.8
102339
102788
103687
105010
106602
108166
108810
107065
102603
97442.2
92766.5
89270.9
86884.9
85403.7
84695.8
102315
102769
103682
105017
106627
108093
108028
106754
103395
97614.9
92882.5
89323.5
86894.8
85400.4
84688.6
102294
102757
103694
105075
106698
107301
107891
106715
103441
98877.3
93052.3
89395.7
86916.3
85401.5
84685.4
102270
102739
103687
105080
106033
107321
107847
106675
103418
98920.7
94366.3
89461.2
86937.7
85408.1
84685.7
102247
102721
103677
105072
106018
107329
107862
106579
103420
98943.2
94364
89478.4
86958.7
85417.5
84687.3
102222
102693
103644
105040
105994
107300
107826
106646
103419
98937.5
94370.1
89471.8
86945.2
85410.5
84685.4
102197
102662
103602
104990
106622
107241
107814
106652
103402
98906.9
93072
89408.6
86920.7
85398.3
84678.1
102172
102630
103548
104892
106513
107993
107927
106682
103392
97600.1
92880.2
89319.1
86883.2
85381.6
84665.7
102150
102601
103506
104839
106444
108026
108692
106974
102541
97394.8
92728.7
89234.6
86845
85359.2
84648.4
102129
102577
103472
104789
106391
107974
108849
106947
102605
97246.7
92606.3
89171.1
86809.6
85334.9
84628.2
102109
102554
103444
104752
106347
107936
108835
106907
102535
97157.9
92535
89126
86779.3
85311.1
84607.1
102090
102534
103422
104727
106320
107910
108826
106889
102516
97121.3
92497.5
89095.9
86754.7
85289.3
84586.6
101136
101748
103021
105049
107897
111462
115294
112570
105171
96037.9
89697.6
85790.1
83330.4
81879.9
81213.5
101110
101724
103000
105034
107888
111457
115259
112552
105167
96045.5
89693.4
85773.1
83309.7
81859
81192.7
101079
101696
102980
105029
107910
111497
115238
112545
105223
96108.8
89722.8
85763.4
83289.9
81838.3
81171.7
101046
101670
102969
105071
108047
111628
112904
112611
106819
96568.6
89896.6
85783.8
83272.7
81818.2
81151.4
101008
101635
102960
105100
108098
110109
112843
112517
106897
98872.8
90079.3
85812.8
83261.9
81799.5
81133.5
100977
101623
102997
105282
107219
110270
112837
112374
106842
99138.4
92339.7
85932.3
83250.9
81791.7
81121.1
100941
101585
102963
104671
107268
110348
111900
111699
107207
100175
92578.9
87818.8
83214.5
81774.8
81111.9
100916
101570
103010
104661
107293
110369
111911
111683
107251
100256
92697.8
87908.8
83347.7
81784.2
81124.1
100888
101535
102918
104624
107260
110344
111880
111688
107237
100268
92696.7
87912.7
83246.8
81792.7
81125.5
100870
101517
102895
105190
107140
110221
111927
111694
107215
99270.2
92505.5
85999.9
83293.8
81814.4
81134.6
100852
101484
102815
104964
107979
110052
112734
112347
106808
99052.1
90145.5
85865.4
83291.4
81810.3
81134.9
100839
101465
102772
104886
107878
111483
112748
112511
106881
96569.3
89907.7
85790.4
83266.9
81800.9
81127.8
100826
101447
102739
104801
107699
111301
115085
112445
105132
96047.6
89676.3
85719.5
83241.9
81784.6
81114.5
100813
101431
102715
104762
107633
111225
115057
112381
105027
95931.6
89594.9
85681
83218.2
81765.5
81097.6
100797
101413
102695
104737
107602
111190
115052
112357
104991
95880.2
89554.1
85654.1
83196.8
81746.1
81079.2
99067
99802.5
101392
104120
108476
115340
120919
126280
112640
91460.1
84064
80438.2
78320.9
77196.1
76717.2
99034.1
99770.5
101363
104098
108470
115336
120901
126250
112606
91438.4
84038.2
80401.8
78288.9
77168.6
76691.4
98988.9
99726
101321
104062
108459
115361
120868
126208
112554
91393.6
83982
80333.3
78243.8
77134.1
76660.7
98935.2
99679.6
101293
104089
108808
113157
120911
126266
112513
95882.4
84062.8
80213.3
78184.4
77094.8
76626.4
98871.1
99610.8
101227
104121
107562
113399
121163
123801
113854
96584.8
87351.6
80096.7
78062.9
77037.7
76590.2
98817.3
99553.2
101250
103683
107637
112432
119359
122695
113854
98930.5
87559.2
82558.2
77972.2
76978.9
76559.7
98757.2
99482
101207
103694
107750
112445
118424
122664
114385
99973.9
89362.9
82672.2
77906.7
76934.8
76539.5
98716.1
99428.2
101188
103726
107089
111923
118430
122651
114422
100120
89465.5
82766.5
79900.8
76911.9
76547.5
98697
99422.2
101148
103672
107060
112383
118421
122661
114465
100192
89529.6
82774.7
77984.9
76974
76566.6
98696.1
99434
101136
103561
107653
112401
118375
122688
114481
100149
89547.9
82786.8
78079.7
77038.6
76599.1
98694.3
99438.1
101062
103965
107418
113340
119201
123661
113925
98937.2
87677.1
80249.2
78154.2
77086.5
76620.7
98704.4
99452.2
101073
103884
108621
113030
120814
126182
112513
96121.8
84146.3
80280.4
78221.7
77109.7
76629.5
98707.9
99449.9
101055
103810
108229
115159
120694
126072
112475
91366.5
83975.3
80327.5
78227.9
77106.3
76626.1
98706.5
99447.7
101050
103801
108193
115090
120663
126060
112469
91351.8
83968.2
80337.1
78221.3
77095.8
76615.5
98696.6
99437.3
101037
103782
108160
115054
120666
126063
112468
91324.6
83942.3
80323.6
78207.1
77080.4
76600
95982.8
96693.9
98282.5
101179
106131
112933
129363
159270
116883
83919.7
73780
72462.6
71714.6
71467.6
71397.8
95940.1
96650
98236.8
101132
106090
112897
129309
159217
116722
83818.5
73697.8
72391.5
71669.5
71433
71367.2
95872.9
96576.1
98151.1
101021
105939
112830
129174
159111
116612
83738.2
73539.8
72272.3
71597.3
71382.3
71326.9
95786.6
96482.1
98046
100757
105271
113129
129107
158898
116360
83769.3
76861.5
71914.1
71490
71316.1
71279.1
95674.5
96343.9
97811.6
100777
105238
112189
126102
158642
117198
87633.3
76553.3
74071.8
71224.7
71226
71224.6
95565.1
96161.2
98231.9
100787
104935
112098
124616
153534
121958
89661.5
78854.4
74000.4
72958.6
71114.2
71178.7
95480.9
96068.4
98180.2
100734
104914
111627
124448
153346
122079
89871.7
80277.4
75654
72950.4
71128.7
71176
95413.4
96001
98199
100720
104874
111562
124365
153289
122415
90246.5
80530.1
75819.2
73058.2
71165.6
71168.4
95410.5
95999.4
98122.2
100710
104870
111545
124359
153312
122551
90511.4
80741.8
75948.4
73078.1
71187
71216.6
95422.3
96019.7
98106.2
100631
104853
111567
124425
153396
122352
90392.3
80725.1
75957.7
73140.9
71213
71245.8
95469.1
96142.4
97616
100590
105062
112039
124568
153568
122190
90089.1
79384.8
74333.9
71393.2
71313.9
71283.9
95521
96221.8
97795.6
100523
104936
112845
126022
158647
116513
88102.5
76980.8
72050.3
71573
71363
71307.1
95552.6
96260.5
97847
100732
105672
112576
128950
158840
116469
83763.4
73567.5
72304.4
71612.5
71377.8
71312
95570.6
96286.4
97885.4
100799
105779
112616
129025
158967
116529
83732.7
73656
72352.3
71622
71377
71306.3
95569.5
96286.7
97887.9
100804
105780
112603
129066
159023
116672
83759.8
73672.2
72363.6
71615.4
71365.2
71293.3
91823.5
92254.9
93214.4
94975.7
97877.2
104516
111834
109281
26286.8
53966.3
59057.4
62068.9
63962.6
65154.3
65697.2
91771.4
92199.5
93153.8
94904.4
97812.6
104445
111771
109160
24507.9
53722.3
58898.7
61986.1
63918.1
65118.4
65665.3
91683.3
92098
93038.2
94782.1
97643.7
104287
111617
108995
24208.1
53641.4
58794.3
61930
63866.2
65071.6
65625.7
91564.3
91947.3
92855.5
94439.3
98851.5
103809
111280
108735
24803
53738.3
60130.9
61968.1
63816.1
65019
65586.1
91408
91755.9
92577.4
95498
98520.6
104117
111946
108379
24933.7
57003.6
61657.2
63243.5
63868.2
64999.7
65553.5
91236.8
91561.8
93633.9
95308.9
98910.3
104262
111626
107913
25346.2
57460.6
62743.1
63445.7
65014.6
65062.3
65542.5
91139.3
91454.7
93540
95165.5
99092.5
104114
111401
107554
26438
58109
63280.8
64640.9
65085.3
65138.8
65579.8
91070.4
91374.8
93457.9
95752
99035.3
104025
111275
107289
27831.6
59413.8
64043.7
65484.4
65278.4
65216.6
65596.9
91053.8
91370.3
93424.6
95712.3
99006.4
104003
111261
107306
29140.4
60870.9
64688
65760.3
65328.7
65219.8
65633.3
91065.5
91394
93448.1
95079.8
99000
104045
111357
107538
27302.8
60243.7
64518.1
65203.4
65317
65183.4
65627.3
91161.6
91511.4
92338.7
95192.4
98783.9
104143
111545
107863
25596.2
58639.3
63698.8
63813.6
64072.5
65117.6
65633
91249.2
91637.5
92557.5
94155.5
98478.2
103245
110757
108325
24835.7
55897.1
60408.9
62172.9
63945.5
65089.3
65630.2
91309.1
91729.6
92682.3
94449.2
97333.3
103774
111169
108570
24338.2
53660.5
58858.7
61999.1
63900.7
65079.9
65621.2
91345.4
91780.1
92748.2
94520
97454.2
104075
111396
108768
24020
53603.7
58871.4
61957.3
63878.5
65068.9
65610.3
91352.5
91791.1
92765.6
94549.8
97480.1
104141
111481
108876
25456.7
53722.5
58935.8
61968
63864.9
65055
65596.2
86858.7
86771.1
86568.9
86253.3
86211.5
90176.6
93835.9
106941
8383.81
32851.8
45496.6
52266.4
56694.9
59278.4
60437.2
86802.6
86711.5
86506.1
86185.6
86158.6
90102.5
93768.2
106729
2709.42
32729.2
45352.6
52214.5
56659.4
59244.8
60406.1
86709.2
86608.8
86398.1
86114.3
86057
89946.8
93612.6
106578
2765.71
32716.5
45356.4
52226.8
56641.5
59217.1
60374.6
86585.8
86455.7
86238.3
86077.9
88715.4
89817
93314.8
106342
4095.23
32887.6
45550.2
52429.6
56667.1
59212
60357.4
86434.9
86281.7
86110.2
87973.2
88640.9
91521.5
94245.8
106155
2307.33
32716.4
46175.8
53182.2
56804.8
59270
60370.5
86273.6
86184.2
87576
87798.4
89759.3
92186.2
94003.9
105595
2344.32
33185
46717.7
53333.1
57524.3
59372.8
60409.5
86182.3
86104.3
87401.2
87698.4
90297.1
92013.5
93807.1
105256
3203.08
34243.4
47401
54020.4
57658
59460.1
60459.5
86107.7
86023.5
87294.2
88589.2
90197.8
91910.4
93688.9
104919
7643.26
37783.7
48776.9
54730.3
57845.6
59546.4
60489.7
86074.5
85996.8
87250
88542.5
90161.4
91878.2
93663.3
104957
7125.08
44283.7
50291.7
55158.3
57960.7
59564.8
60522.6
86063.1
85977.4
87271.5
87598.6
90176.2
91921.1
93733.9
105231
18080.8
41936.7
49999
54887.5
57949.8
59525.2
60502.9
86132
85979.8
85814
87588.5
89609.4
92048
93881.5
105521
2939.32
35924.9
48370.8
53889.6
57062
59401.3
60454.3
86204.3
86077.6
85868.1
85733.4
88418.3
89644.9
93180
106035
3609.41
33518.4
46285.2
52674.1
56805.6
59283.8
60401.1
86262.9
86167.7
85968.4
85707.3
85683.1
89558.6
93158.3
106118
5058.78
32834.7
45427.8
52290.2
56669.1
59220.1
60365.4
86302
86217.7
86027.8
85735.1
85741.5
89678.3
93350.9
106307
2471.25
32660.7
45306.9
52170.5
56608.5
59187
60344.1
86312.4
86232.7
86048.3
85763.8
85758.7
89763.1
93450.5
106417
3061.53
32596.4
45339.7
52144
56581.7
59168.4
60327.9
81785.4
81122.8
79739.8
77511.1
77130.5
75922.1
78347.9
9365.98
25251.6
38380.5
46321.9
51829.6
55116.2
56646.5
81729
81063.5
79678.5
77450.5
77067.6
75855.4
78287.5
2295.07
24907
38292.5
46283.3
51784.9
55075.7
56607.8
81641
80974.2
79578
77359.1
77009.3
75768.9
78153.1
2296.74
24706.7
38322.6
46269.1
51746.3
55037.6
56563.2
81535.4
80861
79449.8
77397.8
77194.5
75606.1
77896.7
2297.53
24735.7
37226.5
46419.8
51738
55017.5
56527
81424.5
80745.6
79450.6
79337.9
77628.9
77540.8
78442.8
2279.1
22545.8
36708.5
45972.5
51780.8
55039.7
56516.5
81309.5
80748.8
80771.8
79479.7
78819.9
78387.6
78284.7
2289.81
22588.7
36530.6
46018.9
51662.8
55019.2
56527.6
81224.1
80674.7
80664.1
79464.9
79492.9
78317.8
78181.2
2296.06
23154
36910
45988
51742.6
55016.8
56531
81137.2
80591.8
80569.3
80234.3
79505.1
78247.5
78108.6
2262.17
24974.8
37960.4
46301.9
51824.6
55055.9
56540.7
81085.9
80536.3
80505.2
80190.9
79452.7
78196.2
78051.6
3044.47
31622.3
39459.6
46693.7
51931
55088.1
56581.6
81043.8
80487.4
80491.2
79297
79338.7
78180.6
78060.8
25802
32125.9
39431
46718.7
51993.4
55124.4
56601.9
81046
80364.5
79071
78968.6
78537.2
78174.6
78121.8
2302.85
25632.4
38153
46501.9
51948.9
55133.5
56577.4
81065.9
80391.5
78980.3
76957.3
76820.7
75392.4
77314.2
2293.56
23990.6
37750
46543
51812.6
55055.1
56547.5
81100.5
80436.7
79050.1
76860.7
76532.3
75322.4
77682.4
2297.27
24737.4
38319.4
46264.5
51729.1
55012
56532.4
81132.8
80473.4
79104.5
76916.1
76587.4
75416.8
77858.5
2296.85
24799.1
38204.9
46194.2
51700.5
54993.7
56526.5
81143.4
80489.1
79126.6
76943.7
76582
75478.2
77968.9
2295.16
24832.8
38207
46157.2
51684.3
54983.2
56518.5
77511.4
76322.1
73820.1
69411.1
67033.6
59275.5
54785.4
4679.86
2289.47
24436.9
36470.4
44570.6
50136.3
53475.2
55081.8
77449.5
76255.4
73744
69322
66950.3
59187.8
54732.6
2851.23
2297.29
24055.2
36404
44477.8
50055.5
53410.8
55019.9
77352.8
76155.5
73613.7
69143.5
66811.1
59006
54598.3
2820.7
2295.8
20571
36383.2
44397.8
49946.7
53318.8
54927.8
77238.5
76040.6
73419.9
68969.2
66610
58722.8
54421.7
3032.94
2303.98
20926.2
33712.2
44289.5
49800.8
53209.5
54818.2
77127.2
75905.7
73227.9
71741.6
66182.4
61459.2
56149.9
2954.58
2301.67
18558.2
32249
42470
49625.1
53110.7
54710.8
77013.3
75787.3
74997.5
71456.8
67982.8
62631.3
56097.1
2271.23
2295.4
18035.5
31281.9
42156.5
48457.7
52948.6
54621.2
76897.5
75657.8
74863.9
71196.9
68694
62520.2
56121.3
2299.69
2291.33
17206.9
30814.4
41161.9
48320.3
52836.2
54543.6
76785
75549.2
74728.6
72462.6
68564.7
62445.4
56219.1
2224.13
2322.05
16432.1
30561.1
40717.8
48253.6
52808.7
54517
76717.9
75472.7
74653.7
72400.6
68484
62357
56002.3
16178.5
2335.94
18563.6
30588.5
40786.3
48312.5
52855.8
54565.9
76671.8
75436.9
74652.9
70989.5
68484.2
62330
55996.9
2534.04
2320.81
15356
30924.7
41365.2
48471.6
52977.7
54653.8
76647.6
75414.9
72707.4
71217.6
67666.9
62365.7
56007.5
2286.75
2294.64
18780.6
31717.1
42404.1
49641.8
53135.1
54729.4
76654.3
75447.5
72809.8
68363.4
65951
58256.6
54099.3
2387.01
2290.1
19772
33714.9
44240
49774.5
53191.1
54802.4
76693.1
75492.4
72948.6
68497.4
66119.9
58437.2
54138.8
2366.26
2296.31
20603.4
36227.8
44279.1
49860.3
53251.4
54867.6
76734.5
75542.6
73041
68654.6
66319.4
58655.7
54291
2290.58
2295.78
23807.5
36229.5
44316
49926.4
53295.1
54914.3
76752.1
75568.9
73085.6
68727.1
66417.2
58828.7
54507.1
2293.46
2297.74
23842.6
36298.9
44316.6
49953.6
53312.2
54931.6
74854.8
73274.8
69909.6
63917.7
53479.8
43456.5
18330.2
2311.82
2301.52
26730.9
38489
46245.9
51377.1
54457.3
55927
74778.3
73190.2
69800
63783.7
53300.7
43265.5
18380.6
2291.22
2303.25
26541.5
38381
46109
51258.3
54356.3
55834.6
74653.7
73056.3
69625.5
63578.3
52981.5
42768
18254.3
2269.38
2302.31
21609.3
38108.1
45886.4
51050.1
54183.8
55679
74496.8
72902.3
69381.8
63304.1
57109.4
42241.6
18135.3
2276.49
2303.21
21560.8
34059.2
45492
50732.4
53944.9
55474.2
74335.2
72725.6
69175.1
65585.4
56864
45810.8
24405.6
2290.13
2295.77
18043.1
31769.3
42421.6
50342.2
53693.2
55252.2
74174.7
72534.6
70593.3
65355.9
58819
47447.3
25055.6
2269.25
2291.17
16848.8
29947.6
41720.9
48178.3
53416.3
55050.5
74007.9
72338.9
70464.6
65077.2
59563.3
47284.2
25070.2
2266.07
2304.64
14483.8
28481.6
39771.4
47789.8
53208.7
54898.9
73859.7
72182.3
70297.5
66280.2
59317.5
47142.9
25277.5
2301.22
2239.05
10340.7
26773.1
38537.4
47568
53129.5
54842.9
73772.4
72081.3
70184.5
66161.7
59179.4
47000.6
24888.9
2269.16
2199.12
2445.71
25667.9
38353
47609.3
53199.8
54902.9
73732.4
72056.7
70148.8
64713.6
59186.8
46972
24916.7
2300.14
2296.47
9433.73
27210
39621.2
47897.3
53400.8
55055.4
73724
72080.2
68434.4
64896.6
58260.5
47024
25103.4
2271.07
2344.95
16793.6
29606
41837.7
50261.5
53669.8
55242.5
73769.4
72144.1
68560.7
62419.3
56271.2
41611.5
19466.1
2291.9
2293.7
19142.4
33615.6
45290.5
50625
53886.2
55435.5
73849.8
72232.7
68767.3
62689.3
52137.8
41952.9
17780.7
2293.19
2302.13
21198.2
37785.3
45652.9
50904
54084.9
55601.3
73922.7
72324.7
68923.4
62911.1
52499.4
42490.7
17876.8
2266.83
2301.69
26059.4
38083.2
45865.6
51084.2
54217.4
55716.3
73958.5
72376
69016.7
63068
52757.8
42912.2
18171.5
2271.9
2302.27
26359.6
38278.3
45969.3
51170.3
54277.9
55767.8
74434.1
72832.6
69396.6
63432.4
52932.7
41190.9
6759.65
2304.42
6891.27
33999
44319.5
50997
55232.2
57722.6
58902.7
74339.1
72726.2
69248
63202.8
52727.7
40450
6518.32
2256.53
9598.02
34356.9
44265.5
50813.9
55070.5
57588.5
58783.9
74183.6
72555.2
69018.4
62893.4
52813.9
39042.1
7808.06
2282.96
2336.61
26552
43868.9
50461.8
54759.7
57348.4
58576
73986.1
72358.3
68765
62626.1
54494.4
37969.6
8806.2
2292.47
2580.74
26269.9
38639.7
49848.7
54289.1
57006.1
58296.4
73780.4
72149.2
68590.6
63687.1
53989.9
40066.2
17902.9
2293.05
2301.24
21056.9
35324.8
45860.4
53745.4
56637.2
57993.6
73573
71941.3
69127.6
63324
55036.1
40864.6
17721.6
2273.53
2286.91
18926.4
32535.7
44787.4
50872.9
56307.4
57720.1
73357.3
71685.6
68910.1
62974.4
55318.3
40464.8
17454.8
2261.98
2269.22
14965
30262.2
42098.7
50297.8
56048.9
57529.6
73171.3
71470.1
68686.2
63605.4
54913.7
40109.9
16877.8
2300.57
2222.45
7220.96
27860.1
40350.8
50012.9
55956.7
57468.1
73053.8
71334.1
68520
63401.7
54643.3
39831.5
17179.4
2307.47
2209.79
2301.9
27026.5
40155.7
50076.8
56056.2
57546
73010.3
71300.5
68431.4
62335.5
54579.6
39705.2
17246.4
2308.31
2390.53
11980.6
29125.8
41918.8
50472.8
56313.7
57744.2
73016.7
71308
67545.4
62524.2
53980.5
39845.7
17094
2295.48
4074.25
18435.3
31920.1
44988.3
53673.1
56629.7
58002.7
73098.4
71402.1
67660.7
61314.7
52958.3
36950.8
16837.3
2285.78
2302.12
22030.9
37558
49574.4
54171.5
56959.2
58276.3
73222.5
71545.8
67912.7
61668.6
51514.4
37384.2
8166.74
2285.38
2448.19
25569.1
43346.7
50151.5
54597.3
57256.6
58514.4
73333
71687.6
68153.9
62063.8
51522.9
39831.8
5667.29
2238.17
6989.61
33408.2
43765
50483.1
54875.1
57454.6
58680.6
73392.8
71771.8
68307.8
62368.9
51982.4
40597.9
6043.77
2250.04
8317.36
34012.3
44142.7
50704.1
55026
57553.1
58760.4
76436.2
75294
72878
69043.1
60820.4
51680.1
19480
2325.1
36536.2
51402.3
54879.6
58954.7
61392.3
62852.1
63569.4
76324.7
75162.6
72685.8
68660.6
60208.9
50712.4
13592.6
2322.29
34937.5
50709.5
54611.2
58678.9
61188.9
62693.9
63433.5
76143
74954.3
72404.8
68105.4
61671.8
47470.7
16862.2
2464.89
18346.4
40140.7
54315.3
58146.4
60786.6
62410.3
63195.4
75913
74694.8
72039.9
67616.1
60029.4
45671.3
16749.9
2304.17
8772.22
37952.4
47911.1
57333
60187.6
62009.1
62876.4
75670.6
74421.8
71755.9
66988.8
58910.6
45142.1
21329.1
2622.74
7701.43
29840.2
43643.7
52638.1
59578.8
61584.5
62544.9
75421
74175.4
71250.4
66277.7
58322.7
44440.9
20516.5
2452.04
4803.8
25887.2
39784.9
51352.3
56208.6
61275.2
62265
75159.7
73858.9
70811.6
65712.5
57748
43488.4
19702.4
2263.79
2253.77
20457.7
37070.5
48300.7
55644.3
61045.5
62086.2
74935.6
73582.2
70479.3
65444.2
57003.5
42720.3
20240.6
2270.45
2218.29
14149.3
35029.2
46483.9
55443.7
60994.7
62049.5
74788.1
73405.2
70245.4
65101.4
56429.5
41809.6
18719
2388.69
2278.67
15749.6
34578.1
46409.9
55569.4
61125.6
62149.4
74741.7
73366.2
70144.1
64666.4
56240.6
41326.7
17827.3
2292.07
2304.45
18553.9
36206.6
48358.2
56000.5
61391.9
62365.6
74764.5
73379.6
70368.2
64982.4
56329
41863.9
18141.7
2296.04
2427.15
23993.4
39020.4
51862.4
59671.4
61680.4
62635
74879.2
73544.7
70620.7
65756.5
57174.1
42564.5
18897.6
2309.37
6911.64
30556.8
46335.9
57142.9
60160.5
62044.6
62930.8
75042.3
73768.9
71037
66449.9
59610.5
44468.8
15120.2
2360.42
16454
37791.5
53647
57836.2
60673.7
62378.3
63194.7
75186.5
73962.9
71365.3
67184.3
58480.1
49213.8
10444.3
2324.62
33725.7
49776.2
53991.4
58300.7
61011.4
62602.7
63381.1
75268.7
74084.3
71589.9
67674.5
59614.8
50509.2
21380.4
2416.43
37215.7
50847.5
54623.6
58646.8
61215.7
62725.8
63476.2
80325
79979.9
79333.8
79594.1
79288.1
87774.5
128776
119936
92632
75891.4
69876.8
69454.4
69110.6
69200.9
69325.5
80204.7
79824.2
79108.1
79083.2
78399.2
86429.3
127354
105900
88140.8
74301.6
69147.1
68996.3
68855.9
69025.5
69183.3
80006.7
79573.4
78772.6
77765.4
77862.6
72206.5
83425.6
81731.2
67030.6
64638.9
68011.7
68083.1
68380.9
68722.1
68938.8
79752.6
79251.8
78237
76902.2
72456.9
67291.1
56836.1
25353.5
44137.4
60712.5
62437.4
66894.3
67690.8
68303.4
68615.2
79486.4
78921.1
77820.3
74456.2
71056.4
62643.9
41813.9
5685.22
29182.8
49256.8
57122.5
62505.5
67039.1
67887.1
68303.4
79215.7
78629.8
76155.5
73561.3
68429.7
59381.2
36996.3
2224.91
19855.2
41614.9
52130.6
61042.3
63786.3
67607.3
68079
78929
78281.4
75579.8
72831.2
66790.1
57394.3
34595
2321.8
2300.31
34930.4
49439.5
57916.6
63321.7
67463.6
67958.6
78683
77975.3
75137.8
71475.4
65519.7
55398.9
36983.4
2110.34
2161.65
36817.9
49883.7
56603.7
63370.8
67489.5
67969.7
78515.2
77765.1
74840
70964.7
64452.4
52868.6
30692.6
2350.76
2281.22
23327.6
49413.6
56918
63624.4
67644.6
68088.5
78467.2
77717.9
74735.8
71290.3
64122.1
51867
25534
2292.41
2279.53
29070.4
49882.6
58851.8
64010.4
67892.8
68295.8
78498.7
77751.2
76201.3
71635.3
65167.3
53528.6
29061.1
2486.58
2321.51
38429.5
52442.8
62324.6
67428.4
68153.1
68526.4
78638.5
77986.4
76612.9
74653.7
68015.2
60473.8
36508.6
2264.42
19907.7
49695.2
60700.5
67056.6
67867.1
68490
68794
78830.3
78281.5
77223.6
75751.2
75052.5
65203.5
59539.6
53289.9
53896.9
60180.3
67489.6
67907.5
68401.3
68803.1
69041.2
78993.5
78524
77624.3
77321.9
76156.3
84143.7
126310
100167
84841.9
72882.4
68498.6
68659.1
68761.5
69020.5
69217.7
79086.8
78673.4
77897.3
77887.9
77482.6
85866
122735
126229
90932.4
74648.6
69421.4
69089.4
68981.6
69146.2
69311
84958.9
85377.3
86172
89344.4
94411.5
99600
125974
127083
108390
91516.4
83210.7
79329.4
76778.2
75754.2
75344.2
84857.3
85240
86032.3
89107
94242.4
100169
130775
137943
109170
90884.6
82632.9
78900.3
76538.3
75590.2
75215.8
84680.4
84973.9
85801.4
87699.6
92737.7
96834
119086
143192
112381
89883.9
81060.6
77876.8
76090.7
75308.2
75000.6
84440.6
84651.9
85222.2
86727.1
87399
95240.4
117813
155251
111084
86303.8
78084.5
76527.7
75441.1
74915.1
74711.3
84187
84315.7
84684.6
83828.8
85630.3
88725.1
102583
165906
99294.8
77825.9
73546.3
73464.8
74853.4
74581.1
74457.2
83940.1
83960.9
82620.8
82823.4
82605.2
84279
96036.7
139697
72915.5
64619.9
67741.4
72205.8
72451.6
74344.8
74307
83670.9
83620.4
82102.4
82015.6
80117.5
81617.5
90307.1
94117
6657.46
38321.7
62758.3
69553.8
72220.9
74291.7
74264.2
83437.6
83330.9
81649.9
80049.8
78405.4
77070.3
72152.4
2413.27
97574.6
77601.1
65829.2
68851.7
72413.4
74377.9
74328.9
83268.6
83120.9
81332
79467.9
76980
72767.6
56965.3
2311.27
24553.9
76595.1
70723.4
70265.8
72815.2
74542.3
74460.8
83215.1
83079
81210.1
80393.8
76542.3
72354
58107.2
2301.39
7387.85
69857.3
71542
72142.4
73230.7
74774.9
74648.7
83233.7
83195
83168
80805
78384.3
75196.5
70106.8
42399.8
62271.2
72331.2
72506.5
74275.1
75537.6
75040.2
74832.9
83362.2
83427.2
83660.5
84546.1
82884.1
86871.6
93787
138654
93370.6
80568.2
77575.4
77142.6
75901.7
75299.1
75041.9
83537.7
83711.6
84282.3
85703.7
89967.2
92275.7
113946
143766
109264
87721
80998
78020.2
76326.6
75537.8
75233
83674.1
83960.6
84567
87360.6
92005.9
97678.3
128286
132002
106168
89787.8
82153.5
78748.8
76604.4
75711.7
75366.7
83743.6
84072.8
84729.8
87508.9
91916.5
97450.1
118209
118717
104998
90484.3
82751.2
79060
76771.4
75806.8
75435.2
89052.1
89762.3
90806.5
93272.5
97829.7
96545.7
100275
104222
99719.8
93736.2
89232.3
85544.3
82756.8
81414.2
80756.5
89016.3
89720
90871.6
93584.6
98550
98400.6
104289
109629
101021
94385.8
89379.7
85452.1
82656.5
81314.3
80672.4
88939.6
89569.4
90983.3
93432.2
97769
100723
106649
116797
102750
95240.9
88650.7
84974.2
82432.6
81126
80531.2
88799.6
89396.4
90738.2
93435.5
95329.4
102209
112620
126074
109009
95150.2
87964.7
84330.8
82075.3
80876.7
80350.7
88621.6
89155.4
90456
91215.8
95098.9
101041
113493
129382
110340
94777.8
86627.1
82930.2
81705.7
80652.1
80188.7
88424.9
88812.4
88893.9
90678.1
93216.7
99944.3
115675
114955
108875
92469
85090.1
82693.4
80639.5
80496.4
80115.8
88224.5
88553.3
88605.2
90207.7
91913.7
99583.4
121735
93854.2
90099.8
79508.6
83329.5
82058.2
80713.2
80536
80152.1
88049
88340.3
88261.3
88765.4
90854.8
96969
109795
107409
83313.6
55530.6
83166.9
82100.3
80978.8
80675.7
80267.2
87898.8
88171.6
87989.1
88320.4
89832
94263.8
103443
138029
151495
98935.5
88492.2
83240.5
81355.2
80854.9
80406.5
87835.5
88127.9
87841.5
88913.6
89551
94136.6
106956
159464
158037
109154
91038.7
84262.5
81686
81042.3
80561.5
87831.6
88261
89224.7
89353.7
90716.2
95340.9
110008
150801
132113
103388
90234.6
84719.2
82698.8
81305.7
80700.6
87888.1
88384.3
89498.7
91888.5
93086.1
99938.9
111594
134188
117780
98956.9
89462.6
85388.5
82808.3
81434.9
80818.1
87957.2
88500.8
89747
91922.7
95952.1
99112.8
106536
117936
104414
96207.2
89269.2
85511.7
82915.6
81531.5
80907.4
87981.3
88612.2
89631.6
92214.4
96722.4
96208.5
101220
103294
99154.1
93866.7
89272
85604.7
82928.3
81588.8
80955.9
87974.1
88597.9
89531.6
91802.7
95384.2
94674.9
96343.3
100157
98279.6
93056.6
88961.8
85538.3
82931.5
81605.6
80972.7
91977
92557.3
93265.8
94032.8
96675
95440.6
94938.4
98549
94906.3
92925.8
90952.2
88658.9
86741.5
85680.8
85068.7
92019.6
92622.4
93450.5
94573.2
97532.1
96739.5
96960.8
98525
95800.3
93895.4