/*--------------------------------*- C++ -*----------------------------------*\
| =========                 |                                                 |
| \\      /  F ield         | OpenFOAM: The Open Source CFD Toolbox           |
|  \\    /   O peration     | Version:  v2012                                 |
|   \\  /    A nd           | Website:  www.openfoam.com                      |
|    \\/     M anipulation  |                                                 |
\*---------------------------------------------------------------------------*/
FoamFile
{
    version     2.0;
    format      ascii;
    class       volScalarField;
    location    "0.034";
    object      p_rgh;
}
// * * * * * * * * * * * * * * * * * * * * * * * * * * * * * * * * * * * * * //

dimensions      [1 -1 -2 0 0 0 0];


internalField   nonuniform List<scalar> 
449343
(
103500
103629
103842
104043
104124
103851
103046
101633
99666
97355.8
94995.6
92860.9
91144.1
89955.6
89350.4
103501
103630
103844
104044
104125
103851
103046
101634
99668.7
97361.2
95002.8
92868.3
91150.7
89961.4
89355.7
103503
103632
103846
104047
104127
103850
103044
101634
99673.3
97371.1
95016.7
92882.9
91163.9
89972.8
89366.1
103505
103635
103850
104050
104129
103848
103041
101631
99677.6
97383.5
95036.4
92904.1
91183
89989.2
89380.9
103508
103638
103854
104055
104131
103845
103036
101628
99681.5
97398.4
95060.7
92930.4
91206.5
90009.2
89399
103510
103642
103859
104059
104134
103844
103034
101630
99691.4
97418.2
95088
92959.2
91231.8
90030.7
89418.3
103511
103644
103862
104063
104136
103845
103036
101633
99702.9
97438.7
95112.2
92985.8
91255
90050.6
89436.4
103511
103644
103863
104064
104137
103847
103035
101635
99706.7
97451.2
95128.7
93003
91271
90065.4
89450.6
103508
103641
103861
104064
104139
103851
103045
101646
99719.2
97458.5
95133.7
93008.3
91277.8
90073.5
89459.3
103504
103637
103856
104060
104139
103855
103052
101654
99722.1
97454.2
95127.9
93001.2
91274.8
90074
89461.5
103499
103631
103851
104056
104138
103860
103060
101662
99723.8
97447.6
95115.2
92988.3
91266.2
90069.7
89459.6
103494
103626
103845
104052
104137
103866
103070
101671
99727.1
97441.9
95101.5
92973.8
91255.3
90062.9
89455.1
103489
103621
103840
104048
104134
103870
103076
101677
99727.7
97435.5
95088.9
92960.5
91245
90055.8
89449.8
103486
103618
103836
104045
104132
103871
103078
101679
99726.2
97429.1
95079.1
92950.6
91237.1
90050.1
89445.4
103485
103616
103834
104043
104131
103872
103079
101679
99724.6
97425.3
95073.8
92945.4
91232.9
90047
89443
103357
103533
103847
104201
104455
104405
103734
102257
100035
97384.7
94725.4
92391.9
90565.3
89323.8
88697.9
103358
103534
103848
104203
104457
104405
103733
102257
100038
97391.7
94734.4
92400.2
90572.2
89329.4
88702.9
103359
103536
103852
104207
104461
104405
103731
102257
100045
97406.2
94753.3
92417.5
90586
89340.6
88712.8
103361
103539
103857
104213
104465
104400
103721
102245
100046
97423
94780.7
92443.5
90606.5
89356.9
88727.2
103363
103543
103863
104220
104470
104390
103709
102236
100033
97443.7
94817
92477.3
90632.6
89377.4
88745
103365
103547
103870
104230
104479
104389
103702
102235
100049
97471.1
94857.9
92515.8
90662
89399.9
88764.6
103367
103550
103875
104236
104480
104395
103705
102241
100066
97504.3
94906.7
92554.6
90689.5
89421.7
88783.5
103366
103550
103876
104239
104483
104398
103703
102194
100063
97516.4
94927.5
92575.7
90707.5
89438.2
88798.8
103363
103547
103873
104236
104482
104403
103715
102255
100085
97528.8
94933.5
92580.7
90715.1
89446.9
88808.4
103358
103541
103866
104230
104484
104401
103722
102263
100085
97513
94903.9
92563.5
90709.9
89447.5
88811.7
103352
103534
103858
104220
104477
104406
103736
102273
100080
97499.4
94878.6
92542
90698.3
89443.1
88810.5
103347
103528
103849
104212
104472
104419
103752
102288
100101
97487.8
94852.7
92519.8
90684.9
89436
88806.4
103342
103522
103842
104205
104468
104425
103763
102303
100103
97476.1
94831.4
92501.1
90672.6
89428.7
88801.5
103339
103519
103838
104200
104464
104425
103767
102304
100099
97464.3
94815.8
92487.8
90663.6
89422.9
88797.3
103338
103517
103835
104198
104462
104425
103769
102305
100097
97458.3
94808.3
92481.3
90659
89419.7
88794.9
102990
103273
103813
104528
105248
105758
105492
103849
100948
97405
94011.8
91227.4
89162.7
87808.5
87139.8
102989
103274
103815
104531
105252
105759
105489
103848
100951
97415.9
94024.4
91237.2
89169.5
87813.5
87144
102989
103276
103820
104539
105261
105763
105481
103848
100961
97443.9
94055.5
91259.6
89184
87823.8
87152.6
102990
103278
103828
104552
105276
105756
105448
103833
100938
97473.4
94106.9
91296.7
89206.7
87839.4
87165.5
102991
103282
103838
104568
105287
105729
105374
103750
100883
97529.9
94173.1
91346
89237.8
87860.1
87182.3
102992
103289
103853
104588
105315
105716
105348
103751
100907
97589
94260.6
91406.6
89273.9
87884.5
87201.9
102992
103291
103859
104605
105311
105730
105345
103755
100928
97637.1
94413.8
91473
89313
87909.7
87222.3
102991
103292
103862
104612
105323
105749
105378
103770
100934
97657
94440.4
91501.3
89336.5
87930.2
87240.3
102987
103287
103856
104605
105314
105739
105358
103774
100956
97669.7
94450
91507.6
89346
87940.9
87252.4
102981
103279
103846
104586
105320
105729
105373
103787
100958
97645.8
94323.1
91469.1
89334.2
87942.4
87258.3
102975
103269
103829
104565
105294
105747
105407
103798
100944
97602.2
94252.8
91427.6
89318.2
87938.4
87259.2
102969
103260
103815
104547
105280
105776
105483
103884
101006
97554.1
94195.9
91389.4
89299.7
87931.5
87256.7
102965
103254
103804
104532
105265
105782
105517
103902
101031
97527
94148.1
91357.5
89284
87924.2
87252.9
102963
103250
103797
104522
105254
105777
105524
103901
101021
97499.4
94118.1
91337.4
89273
87918.4
87249.4
102962
103249
103794
104518
105250
105776
105527
103902
101017
97488.3
94105.7
91328.3
89267.7
87915.3
87247.4
102270
102711
103591
104885
106463
108036
108928
106968
102574
97160.9
92524.5
89115.4
86770.6
85304
84601.1
102268
102710
103592
104889
106470
108041
108917
106964
102573
97175.9
92540.3
89124.6
86775.5
85307.1
84603.5
102264
102709
103597
104903
106491
108058
108907
106981
102615
97239.9
92588
89148.4
86786.9
85314
84608.7
102260
102710
103608
104932
106523
108088
108731
106987
102525
97363.7
92688.1
89192.5
86806.4
85325.2
84617.3
102256
102710
103623
104959
106568
108034
107964
106690
103331
97556.1
92823.7
89264.6
86835.9
85341.6
84629.8
102254
102718
103655
105036
106659
107257
107847
106671
103397
98833.1
93013.1
89356.5
86877
85362.3
84646.2
102250
102720
103667
105060
106008
107297
107822
106651
103394
98896.1
94341.8
89441.6
86918.1
85388.5
84666.1
102247
102721
103677
105072
106013
107324
107857
106574
103415
98938.3
94359.1
89478.4
86958.7
85417.5
84687.3
102242
102713
103664
105060
106008
107314
107841
106660
103433
98952.2
94384.8
89491.4
86964.8
85430.1
84705
102237
102702
103642
105029
106662
107275
107849
106686
103436
98941.3
93111.3
89447.9
86960
85437.6
84717.3
102231
102689
103606
104951
106572
108052
107980
106736
103446
97659
92939
89378
86942.1
85440.5
84724.6
102228
102680
103585
104918
106523
108105
108770
107052
102619
97473.2
92807.2
89313.1
86923.4
85437.7
84726.9
102227
102675
103570
104887
106489
108072
108947
107045
102703
97344.8
92704.4
89269.2
86907.7
85433
84726.3
102227
102672
103562
104870
106465
108054
108953
107024
102653
97275.6
92652.7
89243.7
86897
85428.8
84724.8
102227
102671
103559
104864
106457
108048
108963
107027
102653
97258.6
92634.8
89233.2
86892
85426.6
84723.9
100999
101611
102884
104912
107759
111325
115156
112428
105034
95900.5
89560.3
85652.8
83193
81742.5
81076.2
100993
101606
102882
104916
107771
111340
115142
112429
105049
95927.8
89575.7
85655.4
83192
81741.3
81075
100981
101598
102881
104931
107812
111399
115140
112442
105125
96010.7
89624.7
85665.3
83191.8
81740.2
81073.6
100967
101591
102890
104992
107969
111549
112821
112528
106736
96490.1
89818.1
85705.4
83194.2
81739.7
81073
100950
101576
102901
105041
108039
110046
112779
112454
106833
98809
90020.5
85754
83203
81740.6
81074.6
100938
101584
102957
105243
107175
110225
112793
112330
106798
99094.2
92295.5
85893
83211.6
81752.4
81081.8
100921
101566
102944
104646
107243
110323
111873
111672
107180
100148
92554.4
87794.3
83194.9
81755.2
81092.3
100916
101570
103010
104656
107289
110364
111904
111675
107244
100248
92692.9
87903.9
83347.7
81784.2
81124.1
100908
101555
102938
104639
107274
110359
111892
111700
107249
100281
92711.4
87927.4
83266.4
81812.4
81145.1
100910
101556
102934
105230
107175
110256
111959
111726
107247
99304.5
92539.9
86039.2
83333
81853.6
81173.8
100911
101543
102874
105023
108037
110106
112788
112400
106862
99106.1
90204.4
85924.3
83350.2
81869.2
81193.8
100918
101544
102851
104965
107957
111562
112822
112584
106954
96647.8
89986.2
85868.9
83345.3
81879.4
81206.2
100925
101545
102837
104899
107797
111399
115184
112538
105230
96145.7
89774.4
85817.6
83340
81882.7
81212.6
100930
101548
102833
104880
107751
111342
115174
112493
105144
96049.4
89712.6
85798.8
83335.9
81883.2
81215.3
100934
101551
102833
104874
107739
111327
115189
112490
105128
96017.5
89691.4
85791.4
83334.2
81883.5
81216.5
98929.7
99665.2
101255
103982
108339
115203
120777
126138
112497
91322.7
83926.7
80300.8
78183.5
77058.8
76579.8
98916.4
99652.7
101245
103980
108352
115218
120778
126127
112483
91320.7
83920.4
80284.1
78171.1
77050.8
76573.7
98890.8
99627.9
101223
103964
108361
115263
120765
126105
112451
91295.5
83883.9
80235.2
78145.7
77036
76562.6
98856.7
99601.2
101215
104011
108729
113073
120828
126183
112429
95799
83984.3
80134.8
78105.9
77016.3
76547.9
98812.3
99551.9
101168
104062
107498
113335
121099
123735
113788
96521.1
87287.8
80037.8
78004.1
76978.9
76531.3
98778
99513.9
101211
103638
107593
112386
119312
122647
113808
98883.9
87515.1
82514
77933
76939.7
76520.5
98737.6
99462.4
101187
103669
107725
112418
118396
122636
114357
99945.7
89335.9
82647.7
77887.1
76915.1
76519.9
98716.1
99428.2
101183
103722
107081
111915
118421
122642
114413
100111
89458.2
82761.6
79895.9
76911.9
76547.5
98716.6
99441.8
101168
103687
107072
112395
118432
122672
114476
100203
89541.9
82789.4
78004.5
76993.7
76586.2
98735.4
99473.2
101175
103596
107687
112433
118405
122719
114511
100180
89579.8
82821.2
78118.9
77077.9
76638.3
98753.2
99497
101121
104024
107472
113394
119252
123712
113977
98988.7
87731.1
80308.1
78213.1
77145.4
76679.6
98782.8
99530.7
101152
103963
108700
113104
120888
126256
112586
96195.4
84224.8
80358.9
78300.2
77188.1
76708
98806
99548
101153
103908
108327
115257
120787
126165
112568
91464.6
84073.4
80425.6
78326
77204.4
76724.2
98824.2
99565.4
101167
103918
108311
115208
120776
126173
112582
91469.6
84085.9
80454.8
78339
77213.5
76733.2
98834
99574.7
101175
103919
108297
115192
120798
126196
112601
91462
84079.6
80461
78344.5
77217.8
76737.3
95845.5
96556.5
98145.1
101042
105994
112791
129220
159125
116738
83777.4
73642.7
72325.3
71577.3
71330.3
71260.5
95822.3
96532.2
98119.1
101014
105972
112775
129186
159092
116597
83695.8
73580.1
72273.8
71551.8
71315.3
71249.5
95774.8
96478
98053
100923
105841
112727
129071
159006
116506
83635.2
73441.7
72174.2
71499.2
71284.2
71228.8
95708.1
96403.6
97967.5
100678
105187
113046
129023
158813
116275
83686
76778.1
71835.6
71411.6
71237.7
71200.7
95615.6
96285.1
97752.8
100714
105174
112123
126036
158576
117132
87567.1
76489.6
74008.1
71165.8
71167.1
71165.7
95525.8
96122
98187.8
100742
104889
112051
124568
153486
121911
89613.7
78807.8
73956.2
72914.5
71074.9
71139.5
95461.3
96048.8
98155.7
100710
104887
111598
124420
153318
122051
89843.5
80249.2
75627.1
72925.9
71109
71156.3
95413.4
96001
98194.1
100716
104867
111553
124357
153281
122407
90237.9
80521.5
75811.8
73053.3
71165.6
71168.4
95430.2
96019
98136.9
100724
104882
111556
124370
153323
122562
90522.4
80752.9
75960.7
73092.8
71206.6
71236.2
95461.6
96058.9
98140.5
100665
104885
111597
124456
153427
122383
90423
80755.8
75989.6
73175.2
71252.3
71285.1
95528
96201.3
97674.9
100644
105116
112090
124619
153618
122241
90139.4
79436.3
74387.9
71452.1
71372.8
71342.8
95599.5
96300.3
97874
100601
105010
112919
126093
158718
116584
88173.6
77054.4
72128.8
71651.5
71441.5
71385.6
95650.7
96358.6
97945.1
100830
105771
112669
129043
158931
116559
83856.6
73665.6
72402.5
71710.6
71475.9
71410.1
95688.4
96404.2
98003.1
100916
105897
112729
129138
159078
116640
83845.5
73773.8
72470.1
71739.8
71494.7
71424.1
95706.9
96424.1
98025.3
100941
105918
112736
129198
159153
116802
83892.2
73809.5
72500.9
71752.8
71502.6
71430.6
91686.1
92117.6
93077.1
94838.3
97739.9
104374
111689
109135
26140.9
53824
58920.1
61931.5
63825.2
65016.9
65559.9
91653.6
92081.8
93036.1
94786.7
97694.9
104322
111646
109033
24381.6
53599.7
58781
61868.4
63800.4
65000.7
65547.6
91585.2
91999.9
92940.1
94684
97545.6
104184
111511
108889
24101.5
53538.4
58696.2
61831.9
63768.1
64973.5
65527.6
91485.8
91868.8
92777
94360.9
98768.1
103726
111194
108648
24715.9
53654.9
60047.5
61889.6
63737.6
64940.5
65507.6
91349.1
91697
92518.5
95434.2
98456.9
104050
111878
108312
24866.3
56936.2
61591
63179.7
63809.4
64940.8
65494.6
91197.6
91522.6
93589.7
95264.8
98863.7
104214
111578
107865
25298.4
57412.8
62695.3
63401.5
64970.5
65023
65503.2
91119.7
91435.1
93515.5
95141
99064.3
104086
111373
107525
26409.8
58080.8
63252.6
64613.9
65060.8
65119.2
65560.2
91070.4
91374.8
93453
95744.7
99026.7
104017
111267
107280
27823
59405.2
64035.1
65475.9
65273.5
65216.6
65596.9
91073.5
91389.9
93439.3
95724.6
99017.5
104014
111272
107317
29151.5
60881.9
64699.1
65771.3
65343.4
65239.4
65652.9
91104.8
91433.3
93482.5
95114.1
99030.6
104076
111387
107569
27333.4
60274.3
64548.7
65235.3
65351.3
65222.6
65666.5
91220.5
91570.2
92397.5
95246.4
98835.4
104193
111595
107913
25646.4
58689.5
63749.1
63867.5
64131.4
65176.5
65691.9
91327.6
91716
92636
94234
98551.8
103319
110828
108395
24905.6
55968.2
60482.5
62251.4
64024
65167.8
65708.7
91407.2
91827.7
92780.4
94547.3
97431.4
103867
111259
108659
24427.7
53753.7
58956.8
62097.2
63998.8
65178
65719.3
91463.1
91897.9
92866
94637.7
97572
104187
111506
108877
24129.1
53716.5
58989.1
62075.1
63996.2
65186.7
65728
91489.9
91928.5
92903
94687.1
97617.5
104273
111611
109004
25585.4
53854.9
59073.1
62105.3
64002.3
65192.3
65733.6
86721.4
86633.7
86431.5
86115.9
86074.1
90034.3
93691.2
106794
8237.89
32709.5
45359.3
52129
56557.6
59141.1
60299.8
86684.9
86593.8
86388.4
86067.8
86040.9
89979.8
93643.1
106602
2583.61
32606.6
45234.9
52096.8
56541.7
59127.1
60288.3
86611.1
86510.7
86300
86016.2
85958.9
89843.8
93507.1
106470
2659.43
32613.5
45258.3
52128.7
56543.4
59119
60276.5
86507.3
86377.3
86159.8
85999.4
88632.1
89733.7
93229
106255
4008.18
32804.2
45466.9
52351.1
56588.6
59133.5
60278.9
86376
86222.9
86051.3
87909.4
88577.1
91455.3
94178.3
106087
2242.31
32648.9
46109.6
53118.4
56746
59211.1
60311.6
86234.4
86145
87531.8
87754.2
89712.7
92138.4
93956.1
105547
2296.71
33137.2
46669.9
53289
57480.2
59333.5
60370.3
86162.7
86084.7
87376.7
87673.8
90268.9
91985.3
93778.9
105228
3174.88
34215.2
47372.8
53993.4
57633.5
59440.5
60439.9
86107.7
86023.5
87289.3
88581.8
90189.2
91901.8
93680.3
104910
7634.68
37775.1
48768.3
54721.7
57840.7
59546.4
60489.7
86094.1
86016.5
87264.8
88554.8
90172.4
91889.2
93674.3
104968
7136.12
44294.8
50302.7
55169.4
57975.4
59584.4
60542.2
86102.3
86016.7
87305.9
87632.9
90206.9
91951.8
93764.6
105261
18111.4
41967.4
50029.6
54919.4
57984.1
59564.5
60542.2
86190.9
86038.7
85872.8
87642.4
89660.9
92098.3
93931.7
105571
2989.55
35975.2
48421.1
53943.5
57120.8
59460.1
60513.1
86282.8
86156.1
85946.6
85811.9
88491.9
89718.5
93251.2
106105
3679.25
33589.5
46358.8
52752.6
56884
59362.2
60479.5
86361
86265.8
86066.5
85805.4
85781.2
89651.8
93249.1
106207
5148.29
32927.9
45525.9
52388.3
56767.2
59318.2
60463.5
86419.7
86335.5
86145.5
85852.8
85859.2
89791.1
93461.3
106415
2579.66
32773.5
45424.6
52288.2
56726.2
59304.7
60461.8
86449.8
86370.1
86185.7
85901.1
85896
89895.5
93580.5
106545
3189.9
32728.8
45477
52281.3
56719.1
59305.8
60465.2
81648
80985.4
79602.5
77373.8
76988.3
75779.9
78203.2
9221.28
25109.3
38243.1
46184.6
51692.2
54978.9
56509.2
81611.3
80945.8
79560.8
77332.8
76945
75732.7
78162.5
2200.25
24784.4
38174.8
46165.6
51667.2
54957.9
56490.1
81542.9
80876.1
79479.9
77261
76906.3
75665.9
78047.7
2215.41
24603.7
38224.5
46171
51648.2
54939.5
56465.1
81456.9
80782.5
79371.3
77319.4
77111.1
75522.7
77810.9
2222.34
24652.4
37143.1
46341.3
51659.5
54939
56448.5
81365.7
80686.8
79391.8
79274.2
77565.1
77474.6
78375.3
2245.5
22478.3
36642.2
45908.7
51722
54980.8
56457.6
81270.3
80709.5
80727.7
79435.5
78773.3
78339.8
78236.9
2250.74
22540.9
36482.8
45974.7
51618.6
54979.9
56488.4
81204.5
80655.1
80639.6
79440.3
79464.7
78289.6
78153
2272.7
23125.8
36881.8
45961.1
51718.1
54997.2
56511.3
81137.2
80591.8
80564.4
80226.9
79496.5
78239
78100
2262.03
24966.2
37951.8
46293.3
51819.7
55055.9
56540.7
81105.6
80555.9
80520
80203.2
79463.7
78207.2
78062.6
3055.13
31633.3
39470.6
46704.7
51945.7
55107.7
56601.2
81083.1
80526.7
80525.5
79331.4
79369.3
78211.2
78091.4
25832.7
32156.6
39461.6
46750.6
52027.8
55163.7
56641.1
81104.8
80423.3
79129.9
79022.5
78588.7
78224.9
78172.1
2344.79
25682.7
38203.3
46555.9
52007.8
55192.4
56636.2
81144.4
80470
79058.8
77035.8
76894.3
75466
77385.3
2337.94
24061.7
37823.5
46621.5
51891.1
55133.6
56626
81198.6
80534.8
79148.2
76958.8
76625.5
75415.6
77773.1
2369.52
24830.6
38417.5
46362.6
51827.2
55110.1
56630.5
81250.5
80591.1
79222.2
77033.8
76700.3
75529.6
77968.9
2380.83
24911.9
38322.7
46312
51818.2
55111.4
56644.2
81280.8
80626.4
79264
77081
76714.4
75610.6
78098.9
2393.54
24965.2
38344.3
46294.5
51821.6
55120.5
56655.8
77374.1
76184.8
73682.8
69273.8
66891.4
59133.3
54640.7
4533.32
2163.96
24299.6
36333
44433.3
49998.9
53337.8
54944.4
77331.8
76137.7
73626.3
69204.3
66827.6
59065.2
54607.6
2739.3
2197.35
23937.5
36286.2
44360.1
49937.7
53293.1
54902.1
77254.7
76057.4
73515.6
69045.4
66708.1
58903
54492.8
2724.45
2211.48
20468
36285.1
44299.7
49848.6
53220.7
54829.7
77160
75962.1
73341.4
68890.7
66526.6
58639.4
54335.9
2945.28
2229.69
20842.9
33628.8
44211
49722.3
53131
54739.7
77068.3
75846.8
73169.1
71677.8
66118.6
61393
56082.5
2906.68
2272.23
18490.8
32182.7
42406.2
49566.2
53051.8
54652
76974.1
75748.1
74953.4
71412.6
67936.2
62583.5
56049.3
2271.15
2276.75
17987.7
31234.1
42112.4
48413.5
52909.3
54582
76877.9
75638.2
74839.4
71172.4
68665.8
62492
56093.1
2299.49
2277.47
17178.7
30786.2
41134.9
48295.7
52816.5
54524
76785
75549.2
74723.7
72455.2
68556.2
62436.8
56210.5
2217.15
2321.97
16423.5
30552.5
40709.2
48248.7
52808.7
54517
76737.6
75492.3
74668.4
72412.9
68495
62368.1
56013.3
16188.9
2341.79
18574.6
30599.5
40797.3
48327.2
52875.4
54585.5
76711
75476.2
74687.2
71023.9
68514.9
62360.7
56027.5
2548.05
2324.94
15386.6
30955.3
41397.1
48505.9
53016.9
54693
76706.4
75473.8
72766.3
71271.6
67718.4
62416
56057.8
2288.82
2335.56
18830.9
31767.4
42458.1
49700.7
53193.9
54788.3
76732.8
75526
72888.3
68441.8
66024.5
58330.1
54170.4
2399.69
2320.18
19843.1
33788.5
44318.5
49852.9
53269.6
54880.9
76791.2
75590.5
73046.7
68595.5
66213.1
58530.4
54229.5
2377.22
2370.95
20696.6
36325.9
44377.2
49958.4
53349.5
54965.7
76852.2
75660.3
73158.8
68772.4
66432.2
58768.5
54401.3
2291.09
2386.18
23925.2
36347.2
44433.7
50044.2
53412.9
55032
76889.5
75706.2
73223
68864.5
66549.6
58961.1
54637.1
2295.07
2405.63
23980
36436.2
44453.9
50090.9
53449.5
55068.9
74717.4
73137.5
69772.2
63780.4
53342.5
43314.3
18185.5
2244.77
2183.48
26593.5
38351.7
46108.6
51239.8
54320
55789.6
74660.6
73072.5
69682.2
63666
53183
43142.8
18255.5
2288.77
2195.96
26423.7
38263.3
45991.3
51140.6
54238.6
55716.8
74555.6
72958.2
69527.4
63480.2
52883.4
42665
18148.9
2269
2215.36
21506.3
38010
45788.3
50952
54085.7
55580.9
74418.3
72823.8
69303.3
63225.6
57026
42158.2
18049.5
2276.05
2230.05
21477.4
33975.8
45413.5
50653.9
53866.4
55395.8
74276.3
72666.8
69116.3
65521.6
56800.2
45744.6
24338.2
2288.86
2274.73
17975.6
31703.1
42357.8
50283.4
53634.3
55193.4
74135.5
72495.4
70549.2
65311.7
58772.4
47399.4
25007.8
2269.14
2275.15
16801
29899.8
41676.8
48134.2
53377.1
55011.2
73988.2
72319.3
70440.1
65052.7
59535.1
47256
25042
2266.03
2303.81
14455.6
28453.4
39744.4
47765.2
53189.1
54879.3
73859.7
72182.3
70292.6
66272.9
59308.9
47134.3
25268.9
2295.68
2238.95
10332.2
26764.5
38528.9
47563.1
53129.5
54842.9
73792.1
72100.9
70199.3
66173.9
59190.4
47011.6
24899.9
2269.41
2199.19
2453.39
25679
38364
47624
53219.4
54922.5
73771.6
72095.9
70183.2
64747.9
59217.4
47002.7
24947.3
2313.51
2298.87
9464.38
27240.6
39653.1
47931.6
53440.1
55094.7
73782.9
72139.1
68493.3
64950.6
58312
47074.2
25153.7
2271.62
2395.19
16843.9
29656.2
41891.7
50320.4
53728.6
55301.4
73847.9
72222.6
68639.1
62497.8
56344.7
41685.1
19537.2
2293.42
2331.46
19213.6
33689.2
45369
50703.5
53964.7
55514
73947.9
72330.8
68865.4
62787.4
52235.9
42046.1
17871.5
2295.95
2378.55
21291.4
37883.4
45751
51002.1
54183
55699.4
74040.5
72442.4
69041.1
63028.9
52617.1
42603.6
17987.1
2267.03
2395.75
26177.2
38200.9
45983.3
51201.9
54335.1
55834.1
74095.9
72513.3
69154.1
63205.4
52895.1
43044.6
18301.5
2272.1
2414.61
26497
38415.6
46106.6
51307.6
54415.3
55905.1
74296.8
72695.3
69259.3
63295
52795.4
41053.5
6617.4
2261.39
6753.95
33861.6
44182.1
50859.7
55094.9
57585.3
58765.3
74221.4
72608.4
69130.3
63085.1
52610
40332.3
6395.69
2255.74
9480.31
34239.2
44147.8
50696.1
54952.8
57470.8
58666.1
74085.5
72457.1
68920.3
62795.3
52715.8
38939.1
7705.06
2282.3
2236.94
26449
43770.8
50363.7
54661.6
57250.3
58477.9
73907.6
72279.8
68686.5
62547.7
54411
37886.2
8722.81
2291.38
2495.11
26186.5
38556.3
49770.3
54210.7
56927.6
58218
73721.6
72090.4
68531.7
63623.4
53926.1
40000
17835.4
2291.97
2245.86
20989.4
35258.6
45796.6
53686.5
56578.3
57934.8
73533.7
71902
69083.4
63279.9
54989.5
40816.8
17673.8
2273.43
2263.69
18878.6
32487.9
44743.2
50828.8
56268.1
57680.9
73337.7
71666
68885.6
62949.9
55290.1
40436.6
17426.5
2261.86
2268.65
14936.8
30234
42071.7
50273.2
56029.3
57510
73171.3
71470.1
68681.3
63598.1
54905.1
40101.4
16869.2
2299.92
2222.4
7212.37
27851.5
40342.2
50008
55956.7
57468.1
73073.4
71353.8
68534.7
63414
54654.4
39842.6
17190.4
2308.45
2209.97
2308.14
27037.5
40166.8
50091.5
56075.8
57565.6
73049.5
71339.8
68465.7
62369.9
54610.3
39735.8
17277.1
2308.45
2390.98
12011.3
29156.5
41950.7
50507.1
56352.9
57783.5
73075.6
71366.9
67604.3
62578.2
54032
39896
17144.3
2327.02
4124.53
18485.6
31970.4
45042.2
53731.9
56688.6
58061.5
73176.8
71480.6
67739.2
61393.1
53031.9
37024.4
16908.4
2286.46
2357.8
22102
37631.6
49652.9
54250
57037.7
58354.8
73320.6
71643.9
68010.8
61766.7
51612.5
37477.4
8259.94
2287.31
2540.66
25662.3
43444.8
50249.6
54695.4
57354.7
58612.5
73450.7
71805.3
68271.6
62181.5
51640.6
39949.6
5780.1
2238.36
7107.31
33525.9
43882.7
50600.8
54992.9
57572.3
58798.3
73530.2
71909.1
68445.1
62506.2
52119.8
40735.3
6176.21
2250.64
8454.69
34149.7
44280
50841.4
55163.3
57690.5
58897.7
76298.8
75156.7
72740.7
68905.8
60683.1
51542.7
19342.8
2240.94
36398.9
51264.9
54742.2
58817.3
61255
62714.8
63432
76207
75044.8
72568.1
68542.9
60091.2
50594.7
13475
2275.46
34819.8
50591.8
54493.4
58561.2
61071.2
62576.2
63315.7
76044.9
74856.2
72306.7
68007.3
61573.7
47367.7
16759.2
2463.44
18243.4
40037.7
54217.2
58048.3
60688.5
62312.2
63097.3
75834.5
74616.3
71961.4
67537.6
59946
45587.9
16666.5
2303.31
8686.38
37869
47827.8
57254.5
60109.1
61930.6
62798
75611.7
74362.9
71697
66925.1
58846.9
45075.8
21261.7
2621.48
7633.99
29772.8
43577.5
52574.3
59520
61525.7
62486
75381.8
74136.1
71206.3
66233.6
58276.1
44393.1
20468.7
2451.88
4755.97
25839.3
39737
51308.2
56164.5
61236
62225.7
75140.1
73839.3
70787.1
65688
57719.8
43460.2
19674.2
2263.52
2253.56
20429.5
37042.3
48273.7
55619.7
61025.9
62066.6
74935.6
73582.2
70474.4
65436.8
56995
42711.7
20232
2269.87
2218.25
14140.7
35020.6
46475.3
55438.8
60994.7
62049.5
74807.7
73424.8
70260.1
65113.7
56440.5
41820.6
18730
2391.02
2279.11
15760.6
34589.1
46420.9
55584.1
61145.2
62169
74780.9
73405.4
70178.5
64700.7
56271.2
41357.4
17857.9
2292.21
2316.21
18584.6
36237.3
48390.1
56034.9
61431.1
62404.8
74823.3
73438.4
70427
65036.3
56380.5
41914.2
18192
2302.97
2470.89
24043.6
39070.6
51916.4
59730.3
61739.3
62693.9
74957.7
73623.2
70699.2
65835
57247.7
42638.1
18968.7
2361.14
6981.54
30627.9
46409.4
57221.4
60239
62123.1
63009.3
75140.4
73867
71135.1
66548
59708.6
44562
15213.4
2365.53
16547.2
37884.7
53745.1
57934.3
60771.8
62476.4
63292.8
75304.2
74080.6
71483
67302.1
58597.9
49331.5
10561.8
2366.49
33843.4
49893.9
54109.1
58418.5
61129.1
62720.4
63498.8
75406
74221.6
71727.2
67811.8
59752.2
50646.6
21517.6
2544.37
37353
50984.9
54761
58784.1
61353
62863.1
63613.6
80187.7
79842.5
79196.4
79456.7
79150.8
87637.1
128639
119799
92494.6
75754.1
69739.5
69317.1
68973.3
69063.6
69188.2
80087
79706.5
78990.4
78965.5
78281.5
86311.6
127236
105783
88023.1
74183.9
69029.3
68878.6
68738.2
68907.8
69065.5
79908.6
79475.3
78674.5
77667.3
77764.5
72103.5
83322.6
81628.2
66927.6
64535.9
67913.6
67985
68282.8
68624
68840.7
79674.1
79173.3
78158.6
76823.7
72373.5
67207.7
56752.7
25267.6
44051.6
60629.1
62354
66815.9
67612.3
68224.9
68536.7
79427.6
78862.2
77761.4
74392.4
70992.7
62577.6
41746.5
5617.77
29115.4
49189.4
57056.3
62441.7
66980.2
67828.2
68244.5
79176.4
78590.6
76111.3
73517.2
68383.1
59333.3
36948.5
2217.23
19807.4
41567.1
52082.8
60998.1
63742.1
67568
68039.8
78909.4
78261.8
75555.3
72806.6
66761.9
57366.1
34566.8
2321.19
2290.31
34902.2
49411.3
57889.6
63297.1
67443.9
67939
78683
77975.3
75132.9
71468
65511.1
55390.3
36974.8
2110.29
2161.6
36809.4
49875.1
56595.2
63365.8
67489.5
67969.7
78534.9
77784.7
74854.7
70977
64463.4
52879.6
30703.6
2351.81
2291.44
23338.7
49424.6
56929
63639.1
67664.3
68108.1
78506.4
77757.2
74770.1
71324.6
64152.7
51897.7
25564.6
2292.63
2281.69
29101.1
49913.2
58883.6
64044.8
67932
68335
78557.6
77810.1
76260.1
71689.3
65218.8
53578.9
29111.4
2488.84
2348.6
38479.7
52493
62378.5
67487.3
68212
68585.3
78717
78064.9
76691.4
74732.1
68088.7
60547.4
36579.7
2293.7
19977.6
49766.3
60774
67135
67945.6
68568.5
68872.4
78928.4
78379.6
77321.7
75849.3
75150.6
65296.7
59632.8
53383.1
53990.1
60273.5
67587.7
68005.6
68499.4
68901.2
69139.3
79111.2
78641.7
77742
77439.7
76274.1
84261.5
126427
100284
84959.6
73000.1
68616.3
68776.8
68879.2
69138.2
69335.4
79224.2
78810.7
78034.6
78025.2
77619.9
86003.3
122873
126367
91069.7
74785.9
69558.7
69226.7
69118.9
69283.6
69448.3
84821.5
85239.9
86034.6
89207
94274.2
99462.7
125837
126945
108253
91379.1
83073.4
79192
76640.8
75616.9
75206.8
84739.6
85122.3
85914.6
88989.2
94124.7
100051
130658
137825
109052
90766.9
82515.2
78782.6
76420.6
75472.5
75098.1
84582.3
84875.8
85703.3
87601.5
92639.6
96731
118983
143089
112278
89780.9
80962.5
77778.7
75992.6
75210.1
74902.5
84362.1
84573.5
85143.8
86648.6
87315.6
95157
117729
155165
110998
86220.4
78001.1
76449.2
75362.6
74836.6
74632.8
84128.2
84256.8
84625.8
83765
85566.5
88658.9
102515
165839
99227.4
77758.5
73480.1
73401.1
74794.5
74522.2
74398.4
83900.9
83921.7
82576.6
82779.3
82558.6
84231.1
95988.8
139649
72867.6
64572.1
67693.5
72161.7
72407.4
74305.5
74267.7
83651.3
83600.8
82077.9
81991
80089.3
81589.3
90278.9
94089
6629.56
38293.5
62730.1
69526.8
72196.4
74272.1
74244.6
83437.6
83330.9
81645
80042.4
78396.8
77061.7
72143.8
2405.66
97566.1
77592.5
65820.7
68843.1
72408.5
74377.9
74328.9
83288.2
83140.5
81346.7
79480.2
76991
72778.7
56976.4
2314.99
24564.9
76606.1
70734.4
70276.8
72829.9
74561.9
74480.4
83254.4
83118.2
81244.4
80428.1
76573
72384.7
58137.8
2304.41
7418.13
69888
71572.6
72174.3
73265
74814.2
74687.9
83292.6
83253.9
83226.9
80858.9
78435.8
75246.8
70157
42450.1
62321.5
72381.5
72556.8
74329
75596.5
75099.1
74891.8
83440.7
83505.7
83738.9
84624.5
82957.7
86945.2
93858.2
138724
93440.5
80639.3
77649
77221.1
75980.2
75377.6
75120.4
83635.8
83809.7
84380.4
85801.8
90065.3
92368.9
114039
143860
109357
87814.2
81096.1
78118.3
76424.7
75635.9
75331.1
83791.9
84078.3
84684.7
87478.3
92123.6
97796
128403
132120
106286
89905.5
82271.2
78866.5
76722.1
75829.4
75484.4
83880.9
84210.2
84867.2
87646.3
92053.9
97587.5
118347
118855
105135
90621.7
82888.6
79197.4
76908.7
75944.2
75572.5
88914.7
89625
90669.2
93135.1
97692.4
96408.3
100138
104085
99582.5
93598.9
89095
85407
82619.5
81276.8
80619.2
88898.6
89602.3
90753.9
93466.8
98432.3
98282.9
104171
109511
100903
94268.1
89262
85334.4
82538.8
81196.6
80554.6
88841.5
89471.3
90885.2
93334.1
97670.9
100620
106546
116694
102647
95137.8
88552.6
84876.1
82334.5
81027.9
80433.1
88721.2
89317.9
90659.7
93357.1
95246.1
102126
112536
125988
108923
95066.8
87881.3
84252.3
81996.8
80798.2
80272.2
88562.7
89096.5
90397.1
91152
95035.2
100974
113426
129314
110273
94710.4
86560.9
82866.4
81646.8
80593.2
80129.9
88385.6
88773.2
88849.7
90633.9
93170.1
99896.5
115627
114907
108827
92421.2
85042.3
82649.3
80595.3
80457.2
80076.6
88204.9
88533.7
88580.6
90183.2
91885.4
99555.2
121707
93826
90071.6
79480.4
83301.3
82031.2
80688.6
80516.4
80132.5
88049
88340.3
88256.4
88758
90846.3
96960.4
109786
107401
83305
55522
83158.3
82091.8
80973.9
80675.7
80267.2
87918.4
88191.2
88003.8
88332.7
89843
94274.9
103454
138040
151506
98946.6
88503.2
83251.5
81369.9
80874.5
80426.1
87874.8
88167.1
87875.8
88948
89581.7
94167.2
106987
159495
158068
109184
91069.4
84294.4
81720.3
81081.6
80600.7
87890.5
88319.8
89283.6
89407.6
90767.7
95391.1
110058
150852
132163
103438
90284.8
84773.1
82757.6
81364.6
80759.5
87966.6
88462.8
89577.1
91966.9
93159.7
100012
111665
134258
117850
99028.1
89536.2
85467
82886.7
81513.3
80896.6
88055.3
88598.9
89845.1
92020.8
96050.2
99206
106629
118029
104507
96300.4
89367.3
85609.8
83013.7
81629.6
81005.5
88099
88730
89749.3
92332.1
96840.1
96326.3
101338
103411
99271.9
93984.4
89389.7
85722.4
83046.1
81706.5
81073.6
88111.5
88735.3
89668.9
91940
95521.5
94812.3
96480.6
100295
98416.9
93193.9
89099.2
85675.7
83068.9
81743
81110
91839.6
92420
93128.5
93895.5
96537.7
95303.3
94801.1
98411.7
94768.9
92788.4
90814.8
88521.5
86604.2
85543.5
84931.3
91901.9
92504.7
93332.8
94455.5
97414.4
96621.7
96843
98407.3
95682.6
93777.7