/*--------------------------------*- C++ -*----------------------------------*\
| =========                 |                                                 |
| \\      /  F ield         | OpenFOAM: The Open Source CFD Toolbox           |
|  \\    /   O peration     | Version:  v2012                                 |
|   \\  /    A nd           | Website:  www.openfoam.com                      |
|    \\/     M anipulation  |                                                 |
\*---------------------------------------------------------------------------*/
FoamFile
{
    version     2.0;
    format      ascii;
    class       volScalarField;
    location    "0.011";
    object      p;
}
// * * * * * * * * * * * * * * * * * * * * * * * * * * * * * * * * * * * * * //

dimensions      [1 -1 -2 0 0 0 0];


internalField   nonuniform List<scalar> 
449343
(
99956.9
100094
100325
100556
100668
100457
99712.7
98363.8
96459.8
94204.4
91886.4
89780.5
88081.4
86902.5
86301.4
99940.1
100077
100308
100539
100649
100435
99689
98339.5
96436.4
94182.7
91865.9
89760.2
88060.6
86881.1
86279.7
99926.3
100064
100294
100523
100631
100411
99661.1
98310.2
96409.1
94159.1
91845.6
89740.4
88039.7
86859
86256.9
99915.4
100053
100283
100510
100614
100385
99630.6
98276.7
96378.4
94134.3
91826.6
89722.8
88020.4
86837.7
86234.5
99907.2
100045
100275
100499
100599
100360
99598.7
98242.8
96348.2
94111.5
91811.2
89709.1
88004.4
86818.9
86214.2
99901
100039
100269
100491
100587
100339
99573
98216.4
96325.7
94096.6
91801.8
89700.5
87992.7
86803.9
86197.4
99896
100034
100265
100486
100578
100326
99556.6
98198.8
96311.2
94088.6
91796
89696.1
87984.7
86792.8
86184.7
99891.2
100030
100260
100482
100573
100320
99546.2
98186
96299.5
94082.5
91791.5
89691.1
87977.9
86784.5
86175.7
99885.4
100024
100255
100477
100570
100319
99549.1
98190.4
96303
94079.5
91785.6
89684
87971.2
86778.2
86169.6
99878.4
100017
100248
100473
100570
100323
99557.6
98200.6
96308.3
94076.1
91778
89673.8
87963.4
86772.9
86165.4
99869.8
100009
100240
100468
100568
100331
99570.4
98213.6
96316.6
94075.8
91771.1
89664.5
87956.2
86768.3
86162.3
99859.7
99998.5
100231
100461
100566
100339
99584.1
98228.5
96326.4
94077.3
91764.2
89655.4
87949
86763.5
86158.8
99847.6
99986.5
100219
100452
100560
100342
99590.8
98237
96331.1
94075.3
91755.8
89645.3
87940.4
86756.8
86153.2
99833.3
99972.2
100206
100439
100550
100337
99588.8
98235.8
96327.4
94067.2
91744.1
89632.9
87929.1
86746.8
86144
99816.5
99955.4
100189
100423
100535
100325
99577.7
98224.9
96315.3
94053.1
91728.6
89617.2
87914
86732.4
86129.9
99802.5
99986.8
100316
100698
100990
101007
100400
98994.6
96845.8
94255.6
91639.5
89331.9
87519
86283.8
85660.4
99785.7
99970.2
100299
100682
100971
100985
100374
98968.6
96821.4
94233.8
91618.8
89310.9
87497.1
86261.1
85637.3
99771.8
99956.6
100286
100668
100955
100960
100343
98936.5
96792.8
94211.7
91600.2
89290.9
87474.4
86236.7
85612.2
99760.9
99946.5
100277
100658
100939
100930
100304
98891.7
96755
94187.1
91584.6
89274.2
87453.3
86212.6
85586.8
99753.1
99939.7
100272
100652
100928
100894
100263
98848.2
96705.8
94165
91576.1
89263.5
87436.1
86191
85563.4
99747.6
99935.5
100269
100650
100922
100873
100230
98815.8
96684.1
94152.5
91574.7
89260.2
87424.6
86173.9
85544.1
99743.3
99932.3
100268
100648
100913
100865
100214
98800.6
96670.7
94153
91589.2
89263.7
87417.7
86162.2
85530
99739
99928.6
100265
100646
100910
100860
100202
98736
96652.5
94146
91588.3
89261.1
87411.5
86154.2
85520.9
99733.7
99923.2
100260
100641
100907
100860
100209
98790.8
96665.3
94146.7
91583
89254.5
87406.7
86149.1
85516.2
99726.8
99915.6
100251
100634
100908
100861
100220
98807.3
96672.6
94136.3
91552.4
89235.6
87397.1
86145
85514.1
99718.3
99906.3
100241
100624
100903
100872
100241
98825.1
96680.1
94134.5
91540.9
89222.5
87390.8
86143.1
85514
99708.4
99895.7
100230
100615
100900
100890
100266
98851.6
96710.2
94135.5
91526.7
89210.5
87385
86141.1
85513.7
99696.8
99883.6
100217
100604
100893
100897
100281
98870.8
96720.4
94132.3
91514.2
89199
87377.9
86137.1
85511
99682.8
99869.4
100202
100590
100881
100893
100280
98871.4
96717.3
94121.8
91499.6
89185.9
87367.9
86129.1
85503.8
99666.2
99852.6
100186
100573
100865
100880
100270
98861.3
96705.2
94106.8
91483.2
89170.2
87353.4
86115.6
85490.8
99409.1
99700.4
100254
100994
101744
102355
102150
100605
97802.4
94334.1
90984.8
88217.6
86156.2
84800.3
84129.8
99392
99683.7
100238
100979
101728
102331
102120
100575
97774.2
94311.1
90962.8
88193.9
86130.8
84774.2
84103.5
99377.6
99670.5
100227
100970
101719
102303
102079
100538
97742.9
94293.8
90947.6
88171.2
86102.4
84743.6
84072.4
99366.6
99661.2
100221
100968
101715
102267
102013
100481
97671.4
94270
90943.7
88155.2
86074.9
84711.7
84039.3
99358.9
99656.5
100222
100974
101721
102202
101905
100357
97568
94267.1
90950.5
88148
86052.6
84682.1
84007.7
99354.3
99655.6
100228
100984
101736
102165
101848
100316
97541.1
94271.1
90982.1
88154.8
86037.7
84658.2
83981.2
99351
99654.7
100231
100997
101725
102164
101821
100288
97524.3
94276.5
91086.7
88174.7
86033.8
84644.2
83963.2
99348.4
99653.8
100232
101002
101733
102179
101848
100285
97507.6
94270.3
91085.6
88174
86028.8
84636.5
83954.1
99344
99648.6
100227
100995
101723
102169
101821
100290
97530.4
94278.7
91087.8
88170.1
86026.7
84634.4
83952.5
99338
99640.7
100216
100974
101730
102161
101851
100329
97550.2
94269.5
90975
88140.4
86018.7
84636.2
83956.9
99330.5
99630
100199
100956
101705
102194
101901
100347
97554.3
94251.2
90928.4
88118.3
86016.9
84642
83965.2
99321.8
99619
100184
100940
101701
102239
101997
100463
97648.6
94235.1
90899.4
88102.8
86016.1
84648.3
83973.5
99311.4
99607.1
100170
100923
101686
102251
102041
100494
97683.6
94227.6
90872.5
88088.6
86014.2
84651.5
83978.2
99298.6
99593.3
100154
100905
101665
102245
102043
100496
97684.5
94208.9
90851
88075.6
86008.1
84648.5
83976.2
99282.5
99576.9
100137
100887
101647
102234
102036
100488
97672.4
94191.5
90833
88060.6
85996
84637.7
83965.9
98647.9
99095.5
99988.2
101309
102937
104570
105549
103764
99516
94208.7
89610
86193.7
83830.5
82347.1
81634.6
98629.5
99077.8
99972
101295
102922
104547
105506
103723
99472.8
94178
89581
86161.8
83797.4
82314.6
81602.7
98613.2
99063.4
99961.6
101290
102920
104530
105458
103690
99466.4
94179.9
89565.5
86127.1
83755.4
82272.4
81561.1
98599.9
99053.3
99959.7
101302
102930
104522
105256
103636
99313.3
94229.5
89589.3
86100.2
83710.3
82224.7
81514.1
98590.1
99048.7
99967
101322
102960
104431
104450
103273
100017
94319.1
89635
86092.6
83669.1
82177.5
81467
98585
99050.8
99991.1
101386
103027
103652
104300
103209
100021
95521.8
89747
86108
83641.3
82136.9
81425.9
98581
99052.7
100004
101416
102387
103680
104244
103147
99968
95524.7
91015.2
86124.2
83622.6
82111.7
81398.8
98580.5
99057.7
100016
101429
102388
103705
104271
103051
99954
95526.8
90991.4
86126.5
83627.8
82107.3
81388.1
98578.3
99052
100006
101420
102384
103697
104254
103141
99971.8
95534
91005.8
86130.5
83626.7
82109.3
81393.4
98575.5
99043.4
99987.8
101388
103037
103662
104282
103185
100000
95546.4
89760.3
86110.7
83635.2
82124.5
81410.6
98571.6
99033.4
99958.3
101322
102969
104451
104442
103267
100045
94331.4
89639.7
86084.2
83649.5
82149.8
81435.2
98567
99024.1
99938.5
101293
102935
104549
105288
103669
99324.1
94224.3
89569.1
86067.1
83667
82173.9
81459.4
98560.5
99014.7
99921.5
101264
102904
104519
105476
103688
99444.1
94139.1
89508.6
86059.4
83679.9
82191.2
81477.1
98550.5
99003
99905.7
101241
102877
104501
105468
103678
99409.1
94088.3
89477.4
86052.4
83683.8
82197.8
81484.1
98536.1
98987.8
99889
101223
102858
104488
105477
103673
99398.7
94068.4
89459.3
86041.3
83676.7
82191.8
81478.3
97320.2
97937.7
99219.8
101262
104143
107807
111675
109244
102143
93190.3
86833.8
82862.1
80344.5
78851.3
78162.6
97299
97917.2
99200.9
101246
104129
107788
111632
109206
102096
93146.4
86787.6
82812.4
80297.6
78808.8
78122.6
97277.5
97897.8
99186.6
101244
104147
107796
111581
109157
102088
93128.7
86744.2
82743.4
80229.5
78748
78065.7
97257.3
97881.9
99183.3
101286
104273
107908
109271
109155
103553
93503.7
86831.8
82687.6
80147.6
78674.1
77997.6
97238.7
97867.9
99191.6
101332
104354
106388
109215
109019
103572
95672
86897.3
82621.4
80059.7
78593.2
77925.7
97228.4
97872.2
99241.1
101529
103487
106545
109188
108834
103448
95823.1
89058.9
82643.5
79972.9
78524.3
77860.1
97216.1
97860.4
99231.5
100940
103540
106630
108220
108114
103725
96780.1
89205.5
84461.7
79864.5
78458.5
77812.9
97219.3
97873.1
99303.9
100942
103583
106664
108241
108083
103736
96810.7
89275.1
84512.5
79972.1
78448.9
77804.2
97218.4
97865.1
99241
100934
103578
106668
108232
108114
103736
96825.9
89276.3
84517.4
79889.5
78466
77815.1
97226.3
97873.3
99247.8
101548
103504
106596
108320
108164
103771
95903.4
89156.5
82675.2
79982.8
78524.9
77856.1
97232.5
97867
99200.7
101358
104397
106473
109206
108920
103509
95813.8
86944.4
82648.2
80064.1
78582.3
77907.2
97238.8
97868.7
99181.4
101305
104318
107974
109306
109184
103680
93546.9
86847.1
82682.1
80124.7
78638.7
77956.2
97241.4
97867.5
99168.2
101247
104173
107831
111680
109200
102115
93119.8
86709.8
82694.4
80169.1
78679.4
77993.2
97237.7
97861.7
99157
101222
104126
107785
111674
109187
102045
93052.6
86684.9
82709.8
80192.4
78700.8
78012.9
97226.6
97849.9
99143.4
101205
104106
107768
111681
109185
102026
93024.9
86671
82708.9
80194.5
78702.1
78013.5
95179
95916.9
97510.6
100240
104579
111482
117210
123003
109969
89116.7
81492.3
77693.5
75446.9
74237.5
73717.4
95152.9
95890.8
97485
100218
104568
111463
117173
122932
109851
88980.3
81395.1
77606.9
75378.3
74181.8
73667.5
95121.1
95858.9
97454.2
100188
104558
111459
117112
122819
109686
88784.1
81225.7
77451.3
75267.3
74095.4
73591.8
95087.3
95829.5
97436.6
100216
104887
109279
117162
122777
109477
93020.1
81169.9
77222
75119.1
73986.6
73497.8
95047.5
95785.6
97392.5
100258
103681
109517
117340
120193
110614
93567.4
84282
76961.7
74888.2
73847.6
73393.7
95023.7
95754.5
97435.1
99856.3
103769
108578
115509
119040
110533
95737.4
84302.4
79266.8
74670.2
73699.5
73289.6
94995.1
95714.7
97425.4
99896.6
103905
108588
114573
118948
110930
96620.2
85966.4
79258.5
74507
73589.5
73217.7
94987.5
95694.4
97450.2
99962.3
103293
108108
114585
118910
110881
96638.9
85956.5
79258.3
76462.1
73545.9
73203.4
95001.3
95721.9
97437.6
99939.4
103300
108596
114615
118947
110921
96682.2
85996.6
79258.7
74537.9
73604.6
73228.4
95029.8
95765.1
97455.4
99866.8
103920
108660
114636
119056
111036
96740.9
86106.7
79355.7
74710.7
73721.6
73301.6
95055.4
95800
97420.8
100309
103740
109674
115547
120172
110688
95767.1
84452
77041.5
74925.9
73856.1
73389.8
95084.6
95834.2
97455.9
100266
104988
109421
117316
122901
109559
93224.4
81236.5
77252.3
75120
73969.1
73471.4
95103.6
95849.8
97460.9
100222
104640
111590
117233
122899
109698
88797.1
81212.1
77421.9
75223.4
74040.8
73531.8
95111.2
95856.8
97466.4
100227
104622
111560
117245
122956
109772
88848.5
81281.7
77504.7
75278.4
74081.6
73566.4
95105.7
95851.5
97460.5
100217
104602
111545
117265
122985
109783
88848
81290.1
77524.4
75293.9
74091.8
73574
92005.6
92717.1
94304.9
97195.7
102094
108834
125200
155403
115488
82408.7
71594
69924.4
68946.6
68562
68427.7
91972.9
92682.6
94266.9
97151.8
102052
108800
125137
155320
114978
82055.7
71393
69782
68854
68493.4
68369.1
91925.9
92627.2
94197.4
97052.2
101909
108733
124975
155158
114676
81748.3
71083.2
69548.6
68700.5
68380.6
68277
91868.2
92561.2
94117
96804.4
101285
109046
124857
154816
114172
81505.8
74246.4
69053.6
68481.2
68231
68160.5
91792.1
92457.4
93909.5
96865.6
101264
108117
121874
154465
114732
85033.6
73669.1
71015.4
68076.5
68040.6
68030
91723.5
92314.2
94377.4
96897.7
100997
108022
120378
149283
119279
86762.1
75675.3
70699.6
69646.8
67823.1
67891.6
91682.7
92265.1
94366
96883.8
101003
107593
120208
149036
119181
86601.4
76780
72132.7
69491.3
67755.9
67826.2
91655.6
92239.6
94426.4
96911.3
100999
107566
120157
148975
119161
86575.2
76725.2
72087.8
69487.3
67754.2
67792.3
91694.6
92278
94388.1
96942.6
101040
107603
120221
149082
119234
86684
76817.5
72156.4
69492.7
67779.6
67844.5
91737.6
92331.4
94408.1
96903.7
101079
107691
120389
149329
119269
86858.6
76994.4
72309.2
69641.2
67866.9
67923
91812.9
92487.8
93956.3
96906.5
101337
108232
120644
149704
119470
87070.9
76090.1
71007.2
68160.5
68073.7
68040.9
91883.2
92585.7
94159.5
96882.7
101263
109103
122228
154951
114351
85616.5
74201.2
69123.4
68511.9
68236.2
68151.4
91927.4
92639.1
94230.2
97114.8
102033
108897
125217
155320
114720
81738.2
71077.1
69537.2
68674.4
68341.4
68230.7
91951.6
92670.6
94274.2
97192.3
102154
108951
125353
155547
114733
81770.7
71250.2
69673.3
68757.2
68400.3
68276.6
91953.4
92674.5
94281.9
97205.3
102165
108953
125425
155636
114715
81790.6
71300.5
69721.4
68784.8
68417.6
68289.3
87734.9
88168.9
89130.8
90891.7
93757
100284
107327
103872
33375.3
53826.9
57312
59709.6
61252.8
62249
62704.4
87697.8
88128
89083.5
90831
93699.2
100214
107267
103782
26426.9
52959.6
56946.9
59518.2
61148.7
62175.8
62643.6
87639.5
88055.4
88995.3
90735.9
93547.2
100057
107108
103621
26010.7
52492
56658.3
59340.8
61006.5
62063.5
62551.9
87562.8
87946.5
88852.9
90424.9
94792.4
99591.1
106746
103278
26476.9
52173
57772.1
59179.6
60832.5
61922
62441.6
87458.5
87805.7
88623.7
91529.9
94490.6
99935.9
107422
102784
25364.6
54959.2
58933.4
60196.8
60705
61793.7
62326.9
87345.5
87672.5
89740.7
91391.4
94933.2
100119
107071
102146
25427.9
54759.9
59513.3
60112.1
61644.7
61738.2
62227.7
87308.4
87625.8
89708.6
91304.6
95164.9
100000
106862
101832
25242.6
54449.8
59337.4
60915.5
61537.5
61725.2
62196.3
87290
87597.7
89676.2
91944.9
95153.7
99962.6
106803
101717
25507.8
54422.3
59312.4
61350.3
61599.6
61748.2
62175.8
87325.3
87644.5
89690.3
91950.5
95177
100007
106889
101868
25711.2
54737.2
59509.8
61454.2
61618.1
61764.7
62221.9
87368.2
87700.7
89751.6
91368.9
95227.1
100126
107105
102321
26911.4
55265.1
59829.1
61177.3
61696.2
61796.8
62268.8
87491.5
87844.1
88677.9
91515.1
95062.7
100300
107417
102892
25676.9
55542.8
60021.4
60364.4
60813.4
61851.9
62361.3
87593.4
87987.5
88920.6
90516.4
94799.2
99468.9
106743
103594
25281.1
53982
57794.3
59304.1
60905.7
61952.9
62452.6
87659.3
88084.6
89046.2
90825
93686.9
100035
107217
103980
26236.4
52422.5
56667.2
59350.7
60998.4
62040.3
62520.7
87696.4
88136.1
89111.8
90889.2
93812.5
100360
107498
104272
25464.8
52362.1
56767.8
59399.9
61054.6
62090.9
62561.4
87703.5
88146.9
89128.8
90922.8
93844.1
100442
107612
104433
24402.2
52443.4
56874.1
59452.2
61076.8
62105.9
62572.5
82626.5
82548.3
82367.5
82096.9
82095.4
86070.4
89593
102482
13680.7
32485
43697.6
49861.7
53899.6
56267.6
57330
82592.1
82510.3
82325.7
82049.7
82060.3
86005.4
89527.6
102255
3411.36
31899.8
43354.2
49697
53808.3
56200.9
57274.9
82541.6
82450
82257.8
82012.1
81987.3
85867.1
89377.1
102105
2313.18
31574
43195.7
49596.9
53709.9
56119.1
57202
82480.4
82359.7
82161.6
82047.4
84681.5
85772.9
89094
101869
3135.33
31436.9
43254.2
49604.4
53629.8
56038.9
57128.8
82405.5
82263.4
82116.5
83993.7
84671.9
87483.5
90016
101660
2588.98
30766.3
43488.5
50127
53620.8
56002
57073.7
82328.8
82254.1
83673.6
83900.6
85843.5
88182.3
89798.6
101018
2335.21
29659.3
43210.9
49925.5
54117.8
56002.3
57035.6
82321.4
82256.3
83573.9
83874.7
86442.7
88063.1
89643.4
100580
2510.69
28527.7
42684
50113.6
54049.6
55997.3
57026.2
82312.8
82242.5
83534.5
84831.5
86408.6
88025.2
89602.8
100403
4613.03
28611.9
42593
50261.9
54068.5
56020.9
57018.8
82338.3
82274.9
83546.1
84837.9
86431.8
88064.8
89678.1
100819
5913.79
29070.3
42975.5
50430.1
54148.4
56056.2
57066
82361.4
82289.7
83610.8
83955.6
86498
88175.2
89842.3
101260
2252.1
30716.8
43664.1
50547.4
54273.1
56087.6
57095.6
82450
82311.3
82182.7
83972.6
85981.7
88355.7
90064.5
101602
2316.91
31424.3
44131.8
50361.5
53773.5
56088.2
57128.3
82526.6
82411.9
82229.9
82143.7
84824
86045.5
89461.1
102108
3303.42
31494.5
43629.2
49776.3
53727.1
56091.9
57159.6
82579.6
82494
82315.7
82088.4
82103.3
85979.1
89468.5
102258
2310.76
31441.1
43211.8
49619.9
53719.4
56114.1
57188.8
82610.7
82535.5
82365.8
82111.1
82154.2
86099.8
89679.9
102478
4411.58
31447
43192.3
49588.4
53728.8
56132.2
57209.3
82615.9
82544.5
82378.4
82129.7
82161.3
86182.9
89787.8
102600
2326.02
31424.9
43275.9
49605.3
53732.8
56137.1
57212.8
77359.4
76711.8
75371.6
73262.4
72969.9
72036.2
74593.9
2291.49
23503.2
36017.4
43511.4
48724
51846.6
53299.6
77333.3
76683.1
75341.1
73233
72927.3
71983.4
74538.1
2294.99
23728.8
35908.5
43444.8
48660.7
51791.2
53250.4
77304.5
76653.5
75299.3
73190.7
72916.5
71925.5
74413.2
2295.03
23457.2
35949.3
43392.7
48588.2
51730.9
53189.2
77287.3
76630.6
75261
73333.7
73188
71817.6
74187.5
2292.02
23439.5
34906.5
43452.1
48533.9
51678.8
53132.2
77286
76630.8
75404.4
75343.9
73737.5
73785.4
74755.8
2317.56
20785.6
34096.4
42937.2
48495.7
51653.8
53094.8
77291.3
76764.3
76856
75612.3
75048.4
74690.3
74662.8
2496.83
18233.5
33019.5
42715.6
48320.4
51601.2
53071.7
77323
76814.1
76828.2
75703.8
75804.6
74700.7
74623.2
2276.22
15771.2
32175.2
42300
48262.3
51565.5
53051.6
77326.6
76824.1
76820
76565.6
75898.5
74710.4
74618.8
2538.19
15696.9
32019.6
42114.8
48269.7
51582.8
53048.7
77342.9
76833.9
76824.4
76586.2
75915.3
74732.8
74647.3
2285.99
16589.6
32617.2
42338.6
48370.2
51634.7
53104.8
77335.3
76809
76862.8
75747.8
75852.2
74765.9
74705.7
2326.17
20362.4
33646.5
42821.7
48519.9
51705.8
53152.2
77346
76690.6
75472.7
75410.5
75083.4
74786.5
74791.1
2294.74
21287.1
34260.6
43204.6
48668.8
51767.5
53171.3
77353.7
76699.6
75335.8
73421.4
73350.9
72067.2
74057.8
2282.52
22101.1
35218.3
43623.8
48643.5
51753.2
53185.3
77365.1
76716.4
75369.5
73267.7
73009
71991.9
74432.6
2291.45
23299
35958.7
43437.8
48623.7
51751.8
53201.4
77375.8
76728.2
75392.1
73291.7
73027.1
72058.7
74596.4
2298.52
23559.8
35864.7
43407.6
48625.7
51756.2
53214.6
77373.1
76727.8
75392.8
73290
72988.3
72089
74680.6
2297
23612.2
35875.2
43387.7
48620.9
51755.6
53214.8
72819.3
71634.1
69158.6
64880.8
62719.8
55606.3
51756.6
3738.2
2292.72
21708.5
33334.4
41156.2
46535.1
49805.5
51374.3
72797
71608.1
69124.1
64833.6
62663
55540.3
51730.9
2430.75
2298.56
21792.2
33273.7
41127.8
46477.2
49750.7
51321.3
72778.5
71588.9
69078.2
64737.1
62590.4
55401.2
51558.6
2470.57
2297.16
19043.5
33423.3
41052
46393.8
49677.8
51245.8
72783.1
71597.8
69011.8
64702.1
62528.9
55226.7
51423
2286.86
2298.42
19358.8
31118.5
40975.7
46285
49597.1
51162.3
72824.2
71627.9
69012.4
67647.6
62367.2
58001.5
53183.2
2305.67
2286.29
16702.1
29588.4
39316.7
46148.6
49525
51086.9
72878.8
71704.6
70963.7
67571.3
64289.5
59287.9
53242
2322.51
2278.32
14121
28172.1
38980.3
45109.5
49421.5
51032.1
72921.6
71742.5
70983.6
67508.1
65152.5
59320.9
53295.1
3169.02
2189.79
11219.5
27349.9
37998.3
45017.1
49359.1
50986.4
72934.5
71765
70986.9
68857.3
65171.1
59354.6
53320.3
2449.65
2181.6
10863.5
27231.4
37586.3
45027.3
49372.9
50986
72951.4
71770.2
70998.2
68881.7
65178
59361.2
53337.9
2291.9
2175.73
12588.7
27884.8
37820.8
45137.7
49436.9
51047.3
72940.1
71761.6
71028.4
67559.4
65198.9
59349.1
53338.5
2296.04
2311.01
16449.6
28868
38560.7
45310.3
49544.3
51128.2
72910.6
71712.7
69096.3
67712.5
64363.6
59343.6
53311.3
2835.18
2286.3
17402.8
29440.1
39541.5
46343.8
49665.3
51186.9
72881.6
71697.6
69114.1
64800.9
62559.5
55320
51505.4
2276.88
2288.32
18213.1
31290.6
41143.5
46417.3
49696.6
51242.4
72873.6
71684
69175.4
64832.4
62618.8
55413.9
51571.4
2479.37
2299.07
19005.9
33448.2
41131.2
46463
49732
51291.2
72874.4
71684.6
69198.5
64901.5
62717.2
55538.9
51658.1
3122.83
2295.8
21860.8
33330.8
41151.9
46494.6
49759
51325.5
72867.5
71680.5
69201.4
64914.8
62739.5
55621.5
51778.4
2326.61
2295.88
21799.8
33345.7
41128.7
46502.5
49766.5
51334.8
69817.8
68191
64753.5
58738.9
48484.3
39507.7
16262.3
2378.25
2301.9
23131.1
34333.9
41986.3
47148.4
50281.8
51782.8
69789.5
68155.9
64695.8
58651.3
48353
39381.5
16285.4
2261.51
2302.54
22875.4
34206.5
41901.6
47061
50207.9
51713.2
69761.5
68123.7
64630.5
58547
48184.6
38965
16163.1
2262.39
2302.35
19024.4
34092.4
41760
46930.8
50090.7
51602.4
69754.3
68130.3
64555.9
58461.6
52692.7
38617.7
16146.3
2300.35
2302.47
19043.9
30639.6
41510.3
46731.3
49941.9
51466.5
69790.6
68174.7
64591.8
61200.4
52753.8
42429.6
22477.3
2293.49
2296.34
15743.2
28614.5
38851
46493
49799.9
51330.4
69857.4
68233.7
66386.8
61268.9
55051
44358.2
23356.3
2281.78
2255.15
14313.4
27127.5
38402
44662.7
49657.8
51232
69901.5
68270.8
66483.5
61308.1
56118.3
44532.8
23503.7
2300.01
2129.7
12682
26521.3
36966
44514.7
49568.7
51162.2
69925.4
68305
66523.3
62713.3
56139.7
44633.5
23599.3
2257.97
2302.36
12395
26439.2
36401.9
44504.4
49577.3
51162.9
69949.3
68316.4
66532.1
62719.2
56120.4
44587.6
23588
2248.33
2206.5
13878.3
27008.4
36631
44631.6
49656.5
51229.1
69949.8
68322.1
66530.6
61319
56104.2
44467.6
23526.3
2275.48
2293.05
15924.7
27773.9
37554.7
44842.3
49799.2
51343.7
69921
68304.3
64719.7
61394.8
55063.6
44350.8
23358.6
2265.59
2298.47
16501.8
28240.4
39052.7
46718.6
49962.8
51457
69903.8
68281.4
64710.2
58606.8
52842.3
38829.8
17804.7
2269.38
2278.58
17435.2
30832.5
41722.6
46898.6
50070.4
51577.5
69909.9
68271.7
64778
58687.1
48310.1
38948.7
16229.9
2291.34
2307.17
19166.5
34191.4
41881.9
47034.7
50181
51683.4
69919.3
68282.7
64814.7
58752.1
48417.3
39256.9
16234
2283.95
2302.41
22942.3
34248.1
41954.6
47115.5
50256.2
51757
69917.1
68285.1
64836
58796.4
48491.4
39481.8
16285.1
2270.98
2301.57
23121.2
34348.4
41983.7
47154.5
50286.5
51786
69016.8
67263.6
63517.5
57231.5
46178.6
35736.7
4316.11
2313.63
2314.73
27731
38588.5
45687
50304.7
53042
54337.6
68974.8
67210.5
63423.7
57045.6
45960.5
35198.2
2922.57
2232.18
2312.91
27476
38375.5
45511.4
50168.4
52938.8
54245.6
68928.7
67155
63328
56791.2
46337.4
33478.2
4788.27
2260.61
2306.02
21417.2
38161
45312.7
49969.7
52772
54096.6
68905.5
67151.9
63291.6
56745.9
48893.3
32608.7
7091.23
2281.93
2316
21494.4
33631.2
44932.7
49686.5
52555.1
53910.6
68939.3
67225.9
63431.5
58608.1
48858.7
35779.4
15641.4
2295.58
2298.05
17381.5
30955.6
41494.9
49380.4
52355.5
53723.1
69023
67341
64570.9
58711.9
50688.8
37353.4
16003.4
2310.38
2279.98
16410.1
29179.2
40956.5
46952.9
52198.3
53590.7
69081.5
67409.9
64682.5
58903.5
51700.3
37935.8
16502
2295.94
2329.02
14772
28507.1
39082.9
46758.3
52092.5
53499.1
69126.7
67465.7
64779.9
59951.7
51844.7
38340.9
17333.1
2266.09
2276.65
13345.8
28301.1
38313.9
46733.4
52092.9
53496.8
69157.7
67486.8
64798.7
59940.1
51753.7
37991.9
16598.7
2392.73
2267.64
15788.6
28945.2
38556.2
46865.8
52180
53565.3
69165.8
67486.7
64741.9
58889.4
51576.9
37490.5
16070.3
2285.51
2300.96
17456.2
29732.1
39705.1
47104.7
52343
53704.6
69137.6
67430.3
63650.4
58869.8
50645
37194.8
15920.7
2277.03
2306.76
17945
30232.2
41680.1
49615.6
52523.9
53859.7
69130.6
67384.2
63538.4
56992.4
48999
33475.9
15357
2283.31
2301.72
19247.3
33750.1
45189.2
49874.2
52701.3
54038.3
69153.6
67383.5
63561.1
57024.7
46515.7
33087.4
6047.17
2288.44
2664.46
21672.4
38344.1
45472.5
50100.7
52885.8
54200.4
69178.4
67411.5
63614.2
57209.4
46066.6
35191.5
3758.7
2291.14
2309.71
27284.7
38394.3
45580.7
50244.9
53012.4
54315.9
69187.1
67426.4
63657.1
57330.3
46110.4
35716
3011.88
2244.77
2322.15
27683
38590.6
45691.6
50332.5
53073.3
54369.4
70733.4
69306.8
66246.4
61346.2
51451.3
40181.1
2309.63
2307.6
20458.4
41260.7
47069.3
52506.9
55840.4
57771.7
58694.4
70672.4
69224.5
66100.4
61024.5
50980.1
39095
2305.35
2301.55
19758.5
40600.3
46651.5
52209.9
55645.9
57635.3
58578.4
70600.5
69127.1
65939.8
60499.1
52113.7
37280.8
8045.65
2286.75
2419.63
30445.5
46350.6
51857
55356
57423.9
58394.4
70555.1
69072.7
65824.6
60322.1
51851.4
36394.2
9989.75
2284.8
2335.14
28646.1
40670
51397.2
54979
57149.8
58166.6
70577.8
69122.8
65933.6
60621.6
51518.8
37644.3
16466
2305.14
2309.01
22484.9
37252.5
47326.6
54686.5
56912.9
57942.9
70665.4
69270.5
66082.2
60697
52477.1
38902.6
17115.1
2271.1
2308.76
21091.7
34908.7
46822.2
51802.8
56773.2
57793.7
70736.5
69364.3
66207
60985.5
53327.1
40486.7
20540.7
2276.2
2327.22
17210.5
33864.6
44640.1
51624.5
56666.8
57685.5
70808.8
69453.9
66350.4
61495.7
53712.8
41763.8
30450.6
2209.96
2288.99
14252
33510.1
43645
51613.2
56655
57677.5
70855.6
69495.5
66393.8
61501.3
53556.3
40573.7
19008.8
2296.92
3076.05
19239.3
34421.1
43872.3
51710.2
56728.9
57741
70882.2
69507.5
66349.5
61055.5
53159.4
39192
16872.6
2294.5
5959.41
21980.1
35365.6
45184.2
51909.4
56885.4
57893
70870.4
69441.7
66311.7
60994.7
52513.2
38552.3
16312.8
2391.18
2299.81
22532.3
35991.2
47481.7
54889.6
57066.2
58072.5
70881.6
69423.2
66221.8
60775.3
52007
36772.4
15445.1
2317.72
2304.42
24885.4
40642
51673.2
55170.9
57300.3
58298.2
70925.5
69467.1
66304.2
60894.1
52440
37267.5
9338.4
2281.94
8280.24
29801.9
46599.3
52051.5
55509.8
57554.3
58512.2
70971.1
69526.4
66398.3
61307.2
51152.3
39099.2
2305.86
2300.24
18543.1
40317.8
46651
52296.6
55742.9
57731
58669.1
70994.1
69562.2
66472.7
61530.6
51383.7
39871.9
2307.27
2300.19
19611.6
41010.5
47014.1
52529.4
55893.1
57828
58749.5
74610.4
73870.9
72290.4
70547.1
66092.9
65977.4
72208.2
32388.7
60075.7
60902
60136.9
62305.6
63285.6
63981.8
64365.2
74526.7
73744.9
72058.6
69908.4
64697.8
61449
54533.9
2805.32
53552.3
58755.5
59276.7
61842
63020.7
63808.1
64224.6
74420.2
73586.1
71822.4
68861.8
65065.2
52431.6
32720
2878.28
27240.2
47427.2
58780.6
61117.9
62630.4
63552.7
64005.5
74334.8
73452.3
71532.6
68458.4
61209.9
49473
24508.9
2453.08
13702.9
43802.6
52506.4
60538.1
62139
63225.8
63735.5
74323.5
73431.7
71529.2
66973.2
60510.9
48165.4
24185.7
2346.21
7917.99
34522.6
48476.5
56275.7
61828.3
62946
63479.1
74398.9
73572.5
70591.9
66884
60188.9
48467.7
25467
2869.45
14730.5
32233.3
46030.2
56008.4
58886.7
62776.1
63319.8
74468.6
73673.7
70629.6
67193.9
60603.6
50566.7
30480.7
2270.88
2185.54
28381.1
45884.2
54010.1
58773.2
62656
63191.2
74574.9
73801.6
70810.4
67040
61307.4
53125
40931
2098.08
2186.11
28155.2
46377.3
53004.5
58804.3
62633
63180.2
74646.1
73881.3
70908.2
67148.7
61370.5
52686.7
36487.1
2394.07
2302.19
31855.8
46485.7
52940.9
58797.3
62685
63232.3
74708.9
73936.7
70931.5
67590.9
60908.5
50021
26429.6
2315.59
7750.54
33187.3
46327.4
53982.5
58866.9
62847
63395.8
74729.6
73904.1
72163.9
67488.6
60788.4
48735.7
24294.2
2255.85
7102.34
33914.2
46728.8
56326.8
61989.9
63077.3
63595
74779.8
73952.5
72152
69274.2
61531.1
49869.1
24421.5
2284.99
5824.78
38174.5
52498.1
60824
62339.6
63378.3
63868.8
74860.2
74063
72365.1
69517.2
65736.3
51442.8
26582
2389.18
21777.9
46276.2
59152.6
61372.1
62821.1
63704.9
64138.9
74934.4
74171.2
72500.2
70370.5
65022.7
61324.6
54385.6
2768.93
54077.8
58852.5
59446.8
62005.9
63163.6
63936.6
64340.2
74974.8
74239.4
72623.3
70783.3
65788.4
63190.8
63526.5
5508.69
55721.2
59521.1
59930.6
62343.6
63373.4
64071.3
64448.5
79700.2
79789.9
79917.2
81851.4
84791.9
92333.3
129046
147990
105953
82948
75511.7
73150.3
71431.7
70838.7
70632.3
79604.6
79632.5
79668.3
81213.3
83648.6
91978
136042
159794
106740
81840.3
74691.2
72658.4
71153.6
70641.9
70475.3
79475.5
79406.4
79399.3
79673
82013.7
80692.5
106933
130164
99505.4
75316.5
73080.8
71574.4
70694.3
70340.7
70225.4
79354.7
79209.1
78942.8
79014.9
75865.9
75624.2
81546.1
53374.7
69319.1
71027.8
68635.4
70639.3
70107.6
69960.5
69909.9
79301.7
79110.5
78727.3
76207
74693.5
69551.8
55440.3
9032.53
37217.1
59254.3
64595.9
67194.8
69578.7
69599.9
69600.5
79354.3
79123
77078.8
75928.4
72583.5
67275.9
54092.3
2326.61
23415.5
55981.9
62646.2
66827.5
67114.4
69284.8
69384.6
79412.6
79199.3
77122.5
76062.1
72027.2
67993
57725.5
2308.07
24353.5
64597.2
65903.7
65645.3
66931.3
69089.9
69214.5
79539.1
79347.2
77325
75233.2
72782.1
70144.9
64154
2245.91
40610.8
81007.9
69791.8
65308.8
66794.6
69028
69170.6
79636.7
79463.8
77502.9
75499.8
73326.3
71923.5
80358.8
3065.22
37640.1
68083.2
65654.6
64475.9
66739.9
69078.2
69226
79745
79595
77630.2
76891.3
73378
70831.4
59298.9
2334.67
25106.5
56962.9
62149.3
64764.5
66906.1
69303.2
69430
79809.9
79723.9
79606.9
77092.8
74375.9
70187.1
56751.7
2215.89
29066.7
57046.2
62390.3
66896.6
69686.2
69700.8
69701.3
79907.5
79851.8
79789.8
80205.3
76817.3
76505.9
63275
2331.4
41066.4
65048.4
68657.4
70955.5
70318.8
70116.5
70047.8
80022.5
80018.9
80133.2
80642.5
83193.1
79893.6
98973.6
121328
97876.5
75009
73737
71939.2
70944.2
70521.5
70379.6
80118.1
80192.6
80297.3
81996.3
84627.9
92837.8
137323
159892
108749
82759.5
75301.9
73010.9
71381.3
70819.6
70624.3
80167.8
80288.1
80434.5
82422
85527.2
93171.1
136401
165028
109536
83203.5
75841
73370
71610
70978.3
70753.2
84760.6
85433.3
86575.2
89879.2
95655.9
99718
116827
124882
105648
94075.1
86609.2
81817.7
78656.8
77266.1
76627.4
84694.1
85323.3
86486.4
89843.9
95690.4
100764
120566
128053
107767
94352.9
86487.2
81592.2
78454.1
77097.8
76481
84597.8
85113.7
86388.8
88873.4
94536
100562
116017
140081
111748
95358.4
84977.6
80625.4
78040
76774
76228.1
84487.4
84935.8
85968.8
88366.4
89836
99258.4
119474
155176
120289
93510.1
83171
79514.4
77428.4
76354.1
75887.8
84406.9
84770
85570.6
85681.2
88454.2
93289
109131
179120
118000
88423
80109.4
77166.9
76567.5
75868.3
75512.8
84415.2
84659.6
84031.7
85079
86139.2
89525.2
103171
166281
96735.9
80945.3
77410.7
76046.8
74760.9
75413.2
75210.2
84454.9
84679
84118.1
84961.5
85090.7
88122
92198.1
75393.8
3087.44
76916.2
78144.7
74772.4
74304.6
75131.8
74988.6
84586.9
84828.5
84305.2
84323
85334.9
87651.8
81352.4
12620.8
57194.1
66022.4
80556.9
74066.1
73961.5
75025.6
74919.6
84694
84959.1
84531.3
84633.3
86034.9
89698.1
87208.7
2253.01
2268.19
39957.3
73397.4
73149.1
73949.4
75101.7
74986.5
84834.6
85153.5
84741.7
86020.3
86886.2
93283.3
114476
211960
90659.7
75724
74310.3
74047.8
74366.6
75414.1
75242.7
84964.6
85443.6
86559.8
86778.3
88535.6
94861.8
118733
207437
113116
85658.2
77901.1
76545.7
76689.3
75970.4
75609.7
85099
85653.5
86937
89784.1
91319.3
101315
120196
181952
123850
92788.8
82981.5
79933
77664.7
76523.2
76036
85209.5
85811.4
87245.3
90038.7
96100
101859
118990
146279
116273
96539
85778
81087.3
78327.8
76976
76403.1
85280.9
85986.1
87275.2
90886.5
97201.2
102319
123139
130391
109679
95583.9
87351.4
82102
78776.5
77328.5
76666.3
85308.3
86051.6
87310.4
90900.1
97442.5
101976
122128
130523