/*--------------------------------*- C++ -*----------------------------------*\
| =========                 |                                                 |
| \\      /  F ield         | OpenFOAM: The Open Source CFD Toolbox           |
|  \\    /   O peration     | Version:  v2012                                 |
|   \\  /    A nd           | Website:  www.openfoam.com                      |
|    \\/     M anipulation  |                                                 |
\*---------------------------------------------------------------------------*/
FoamFile
{
    version     2.0;
    format      ascii;
    class       volScalarField;
    location    "0.011";
    object      p_rgh;
}
// * * * * * * * * * * * * * * * * * * * * * * * * * * * * * * * * * * * * * //

dimensions      [1 -1 -2 0 0 0 0];


internalField   nonuniform List<scalar> 
449343
(
99819.5
99956.8
100188
100419
100530
100320
99575.3
98226.5
96322.5
94067.1
91749.1
89643.2
87944.1
86765.2
86164.1
99822.4
99959.7
100190
100421
100531
100318
99571.3
98221.7
96318.7
94065
91748.2
89642.5
87942.9
86763.4
86162
99828.2
99965.5
100196
100425
100533
100313
99563
98212.1
96311
94061
91747.5
89642.3
87941.6
86760.9
86158.8
99836.9
99974.4
100204
100431
100535
100307
99552.1
98198.2
96299.9
94055.8
91748.1
89644.3
87941.9
86759.2
86156
99848.3
99986
100216
100441
100540
100301
99539.8
98184
96289.3
94052.7
91752.4
89650.3
87945.6
86760.1
86155.3
99861.8
99999.9
100230
100452
100548
100300
99533.8
98177.2
96286.4
94057.4
91762.6
89661.3
87953.4
86764.7
86158.2
99876.4
100015
100245
100466
100559
100307
99536.9
98179.1
96291.6
94069
91776.4
89676.5
87965
86773.2
86165.1
99891.2
100030
100260
100482
100573
100320
99546.2
98186
96299.5
94082.5
91791.5
89691.1
87977.9
86784.5
86175.7
99905
100044
100275
100497
100590
100339
99568.7
98210
96322.6
94099.1
91805.2
89703.6
87990.8
86797.9
86189.2
99917.6
100056
100288
100512
100609
100363
99596.8
98239.9
96347.5
94115.4
91817.2
89713
88002.6
86812.1
86204.7
99928.7
100068
100299
100527
100627
100390
99629.3
98272.5
96375.5
94134.7
91829.9
89723.4
88015.1
86827.2
86221.2
99938.1
100077
100309
100539
100645
100418
99662.6
98306.9
96404.9
94155.8
91842.7
89733.9
88027.5
86842
86237.3
99945.7
100085
100318
100550
100658
100440
99688.9
98335.1
96429.2
94173.4
91853.9
89743.4
88038.5
86854.9
86251.3
99951.1
100090
100323
100557
100668
100455
99706.5
98353.5
96445.1
94184.9
91861.8
89750.6
88046.8
86864.6
86261.7
99953.8
100093
100326
100561
100672
100462
99715
98362.3
96452.6
94190.5
91865.9
89754.6
88051.3
86869.7
86267.2
99665.1
99849.5
100179
100561
100852
100870
100262
98857.3
96708.5
94118.3
91502.2
89194.6
87381.7
86146.5
85523
99667.9
99852.4
100182
100564
100853
100867
100257
98850.9
96703.7
94116
91501.1
89193.2
87379.3
86143.4
85519.6
99673.7
99858.5
100188
100570
100857
100861
100245
98838.4
96694.7
94113.6
91502.1
89192.8
87376.3
86138.6
85514.1
99682.4
99868
100199
100579
100861
100851
100226
98813.2
96676.5
94108.6
91506.2
89195.7
87374.8
86134.1
85508.3
99694.2
99880.9
100213
100593
100870
100836
100204
98789.3
96647
94106.1
91517.3
89204.7
87377.3
86132.2
85504.6
99708.3
99896.2
100230
100611
100883
100834
100191
98776.6
96644.9
94113.2
91535.5
89221
87385.3
86134.6
85504.8
99723.7
99912.7
100249
100629
100893
100846
100195
98781
96651.1
94133.4
91569.6
89244.1
87398.1
86142.6
85510.4
99739
99928.6
100265
100646
100910
100860
100202
98736
96652.5
94146
91588.3
89261.1
87411.5
86154.2
85520.9
99753.3
99942.9
100280
100661
100926
100880
100228
98810.4
96685
94166.3
91602.6
89274.1
87426.3
86168.8
85535.8
99766
99954.9
100291
100673
100947
100901
100259
98846.5
96711.8
94175.6
91591.6
89274.8
87436.4
86184.3
85553.4
99777.2
99965.2
100300
100683
100962
100931
100300
98884
96738.9
94193.4
91599.8
89281.4
87449.7
86201.9
85572.9
99786.9
99974.2
100308
100693
100978
100969
100344
98930
96788.7
94214
91605.2
89289
87463.5
86219.6
85592.2
99794.9
99981.7
100315
100702
100991
100995
100379
98968.9
96818.5
94230.4
91612.3
89297.1
87476
86235.2
85609.1
99800.5
99987.1
100320
100707
100999
101010
100398
98989.1
96835
94239.5
91617.3
89303.6
87485.6
86246.8
85621.6
99803.5
99989.9
100323
100710
101003
101018
100408
98998.6
96842.6
94244.1
91620.5
89307.5
87490.8
86253
85628.1
99271.8
99563.1
100117
100857
101606
102218
102013
100468
97665.1
94196.7
90847.5
88080.2
86018.9
84663
83992.4
99274.3
99566
100120
100861
101610
102213
102003
100457
97656.5
94193.3
90845.1
88076.1
86013.1
84656.5
83985.8
99279.5
99572.4
100129
100872
101621
102205
101981
100440
97644.8
94195.7
90849.5
88073.1
86004.3
84645.5
83974.3
99288.1
99582.8
100143
100889
101636
102189
101935
100402
97592.9
94191.5
90865.2
88076.7
85996.4
84633.2
83960.8
99300.1
99597.6
100163
100915
101662
102143
101846
100298
97509.1
94208.2
90891.6
88089.1
85993.7
84623.2
83948.8
99315
99616.3
100189
100945
101696
102126
101809
100277
97501.9
94231.9
90942.8
88115.6
85998.4
84619
83942
99331.4
99635.1
100212
100978
101706
102145
101801
100268
97504.7
94256.9
91067.1
88155.1
86014.1
84624.5
83943.6
99348.4
99653.8
100232
101002
101733
102179
101848
100280
97507.6
94270.3
91085.6
88174
86028.8
84636.5
83954.1
99363.6
99668.2
100246
101015
101743
102189
101841
100310
97550
94298.3
91107.4
88189.8
86046.4
84654.1
83972.1
99377.2
99679.9
100255
101013
101769
102200
101890
100368
97589.5
94308.8
91014.2
88179.7
86058
84675.4
83996.2
99389.4
99688.9
100258
101015
101764
102253
101960
100406
97613.2
94310
90987.2
88177.2
86075.7
84700.9
84024.1
99400.2
99697.5
100263
101018
101779
102318
102076
100542
97727.1
94313.6
90977.8
88181.3
86094.6
84726.8
84052
99409.5
99705.2
100268
101021
101784
102349
102139
100592
97781.7
94325.7
90970.6
88186.7
86112.3
84749.6
84076.3
99416.3
99711
100272
101022
101783
102363
102161
100614
97802.2
94326.7
90968.7
88193.3
86125.9
84766.2
84094
99419.9
99714.2
100274
101024
101784
102372
102173
100625
97809.7
94328.8
90970.3
88198
86133.3
84775
84103.3
98510.6
98958.2
99850.9
101172
102799
104432
105412
103627
99378.7
94071.4
89472.7
86056.4
83693.1
82209.8
81497.2
98511.8
98960.1
99854.3
101177
102804
104430
105389
103606
99355.1
94060.3
89463.3
86044.1
83679.7
82196.9
81485
98515.1
98965.3
99863.5
101192
102822
104432
105360
103592
99368.3
94081.8
89467.4
86029
83657.3
82174.3
81463
98521.4
98974.8
99881.2
101223
102851
104444
105178
103558
99234.9
94151
89510.8
86021.7
83631.8
82146.2
81435.6
98531.3
98989.9
99908.1
101263
102902
104372
104386
103209
99953.4
94260.2
89576.1
86033.7
83610.2
82118.6
81408.1
98545.7
99011.6
99951.8
101347
102988
103608
104255
103165
99976.7
95477.6
89707.7
86068.8
83602.1
82097.6
81386.7
98561.3
99033.1
99984.3
101397
102363
103656
104220
103123
99943.5
95500.2
90990.6
86104.6
83603
82092.1
81379.2
98580.5
99057.7
100016
101429
102383
103700
104267
103046
99949.1
95521.9
90986.5
86126.5
83627.8
82107.3
81388.1
98597.9
99071.6
100026
101440
102399
103712
104268
103156
99986.5
95548.7
91020.5
86150.1
83646.3
82128.9
81413.1
98614.7
99082.6
100027
101428
103076
103697
104316
103220
100035
95580.8
89799.5
86149.9
83674.5
82163.7
81449.8
98630.4
99092.2
100017
101381
103028
104510
104496
103321
100099
94390.3
89698.6
86143.1
83708.3
82208.7
81494.1
98645.4
99102.6
100017
101371
103014
104627
105367
103747
99402.6
94302.7
89647.6
86145.6
83745.5
82252.4
81537.9
98658.6
99112.8
100020
101362
103003
104617
105574
103786
99542.2
94237.2
89606.7
86157.5
83778
82289.3
81575.2
98668.2
99120.7
100023
101359
102995
104618
105586
103796
99526.8
94206
89595.1
86170.1
83801.6
82315.5
81601.8
98673.4
99125.1
100026
101360
102995
104625
105615
103810
99536.1
94205.8
89596.6
86178.6
83814.1
82329.2
81615.7
97182.8
97800.4
99082.4
101125
104005
107670
111538
109101
102006
93053
86696.4
82724.8
80207.2
78713.9
78025.3
97181.3
97799.5
99083.2
101129
104012
107671
111515
109083
101978
93028.6
86669.8
82694.7
80179.9
78691.1
78004.9
97179.4
97799.7
99088.5
101146
104048
107698
111483
109054
101990
93030.6
86646.1
82645.3
80131.4
78649.9
77967.6
97178.8
97803.4
99104.9
101208
104194
107830
109188
109072
103470
93425.3
86753.3
82609.1
80069.1
78595.6
77919.1
97179.9
97809.1
99132.7
101273
104295
106324
109151
108955
103508
95608.3
86838.5
82562.6
80000.8
78534.4
77866.8
97189.2
97833
99201.9
101490
103443
106501
109144
108790
103404
95779
89014.7
82604.3
79933.6
78485
77820.9
97196.5
97840.8
99211.9
100915
103516
106606
108193
108087
103698
96753.1
89181
84437.2
79844.9
78438.9
77793.3
97219.3
97873.1
99303.9
100937
103578
106659
108234
108075
103729
96803.3
89270.2
84507.6
79972.1
78448.9
77804.2
97238
97884.8
99260.7
100949
103593
106683
108244
108126
103749
96838.2
89291
84532.1
79909.1
78485.6
77834.7
97265.6
97912.6
99287
101587
103539
106630
108352
108196
103803
95937.7
89190.8
82714.4
80022
78564.1
77895.4
97291.4
97925.8
99259.6
101417
104456
106527
109260
108974
103563
95867.8
87003.3
82707.1
80123
78641.2
77966
97317.3
97947.2
99259.8
101383
104396
108052
109380
109258
103754
93625.4
86925.6
82760.5
80203.1
78717.2
78034.7
97339.5
97965.6
99266.3
101345
104271
107929
111779
109293
102213
93217.9
86807.9
82792.5
80267.2
78777.5
78091.3
97355.4
97979.4
99274.7
101340
104244
107903
111792
109299
102162
93170.4
86802.6
82827.6
80310.1
78818.5
78130.7
97364
97987.3
99280.8
101343
104243
107905
111818
109317
102163
93162.3
86808.3
82846.3
80331.8
78839.4
78150.8
95041.7
95779.6
97373.3
100103
104442
111345
117068
122861
109826
88979.4
81355
77556.2
75309.5
74100.2
73580.1
95035.2
95773
97367.3
100101
104450
111345
117051
122809
109729
88862.6
81277.4
77489.2
75260.6
74064.1
73549.8
95023
95760.8
97356.1
100090
104460
111361
117009
122716
109583
88686
81127.6
77353.2
75169.2
73997.3
73493.7
95008.9
95751
97358.2
100137
104809
109195
117079
122694
109393
92936.7
81091.4
77143.5
75040.6
73908.1
73419.3
94988.6
95726.7
97333.6
100199
103617
109453
117276
120127
110547
93503.6
84218.2
76902.8
74829.4
73788.8
73334.8
94984.4
95715.3
97395.9
99812.2
103725
108531
115462
118992
110486
95690.8
84258.2
79222.6
74631
73660.3
73250.3
94975.4
95695.1
97405.8
99872
103880
108561
114545
118920
110902
96592
85939.4
79234
74487.4
73569.9
73198.1
94987.5
95694.4
97445.3
99957.4
103286
108100
114576
118901
110873
96630.3
85949.1
79253.4
76457.2
73545.9
73203.4
95020.9
95741.5
97457.2
99954.2
103312
108608
114626
118958
110932
96693.2
86008.9
79273.4
74557.5
73624.2
73248
95069
95804.3
97494.6
99901.2
103954
108692
114667
119086
111066
96771.6
86138.6
79390
74749.9
73760.9
73340.8
95114.2
95858.9
97479.6
100367
103794
109728
115599
120223
110739
95818.6
84505.9
77100.3
74984.8
73914.9
73448.6
95163.1
95912.7
97534.3
100344
105067
109495
117390
122974
109633
93297.9
81315
77330.7
75198.4
74047.6
73549.9
95201.7
95947.9
97559
100320
104738
111688
117326
122992
109791
88895.2
81310.2
77520
75321.5
74138.9
73629.9
95228.9
95974.6
97584.1
100345
104740
111677
117358
123069
109884
88966.2
81399.4
77622.5
75396.2
74199.3
73684.1
95243.1
95988.8
97597.8
100354
104739
111682
117397
123118
109915
88985.3
81427.4
77661.8
75431.2
74229.2
73711.4
91868.3
92579.8
94167.6
97058.4
101956
108692
125058
155258
115343
82266.4
71456.6
69787.1
68809.2
68424.7
68290.4
91855.2
92564.8
94149.2
97034.1
101935
108677
125014
155195
114853
81933
71275.3
69664.3
68736.3
68375.7
68251.4
91827.8
92529.1
94099.3
96954.1
101811
108630
124872
155053
114571
81645.3
70985.1
69450.5
68602.4
68282.5
68178.9
91789.7
92482.7
94038.5
96725.9
101201
108963
124774
154730
114087
81422.4
74163
68975.1
68402.7
68152.5
68082.1
91733.2
92398.5
93850.7
96801.9
101200
108050
121808
154399
114666
84967.3
73605.4
70951.6
68017.6
67981.8
67971.1
91684.2
92274.9
94333.2
96853.5
100950
107975
120330
149236
119231
86714.2
75628.7
70655.4
69602.6
67783.9
67852.4
91663.1
92245.5
94341.5
96859.2
100976
107564
120180
149008
119153
86573.2
76751.8
72105.7
69466.8
67736.3
67806.6
91655.6
92239.6
94421.5
96906.4
100992
107557
120149
148967
119153
86566.6
76716.6
72080.5
69482.4
67754.2
67792.3
91714.2
92297.6
94402.8
96957.3
101052
107614
120232
149093
119245
86695
76828.5
72168.7
69507.4
67799.3
67864.1
91776.8
92370.6
94442.4
96938.1
101111
107722
120419
149360
119299
86889.3
77025.1
72341.1
69675.6
67906.1
67962.3
91871.8
92546.7
94015.1
96960.5
101391
108283
120695
149754
119521
87121.2
76141.6
71061.2
68219.4
68132.5
68099.7
91961.7
92664.2
94238
96961.2
101337
109177
122299
155022
114423
85687.6
74274.8
69201.9
68590.3
68314.7
68229.9
92025.5
92737.2
94328.3
97212.9
102131
108990
125310
155410
114811
81831.4
71175.2
69635.3
68772.5
68439.5
68328.8
92069.3
92788.3
94391.9
97310
102272
109063
125466
155658
114843
81883.6
71368
69791
68874.9
68518.1
68394.4
92090.8
92811.9
94419.3
97342.6
102303
109085
125557
155766
114845
81923.1
71437.8
69858.7
68922.1
68554.9
68426.6
87597.6
88031.6
88993.4
90754.4
93619.7
100142
107182
103726
33229.4
53684.6
57174.6
59572.3
61115.5
62111.7
62567.1
87580.1
88010.3
88965.8
90713.3
93581.5
100091
107142
103656
26300.6
52837
56829.1
59400.5
61031
62058.1
62525.9
87541.4
87957.3
88897.2
90637.8
93449.1
99954.1
107002
103514
25904
52389
56560.2
59242.7
60908.4
61965.4
62453.8
87484.3
87868
88774.5
90346.5
94709.1
99507.7
106660
103191
26389.8
52089.7
57688.8
59101.2
60754
61843.5
62363.1
87399.6
87746.8
88564.8
91466.1
94426.9
99869.7
107355
102716
25297.1
54891.8
58867.1
60133
60646.2
61734.9
62268
87306.3
87633.3
89696.5
91347.3
94886.6
100071
107023
102099
25380.1
54712.1
59465.5
60068
61600.5
61699
62188.4
87288.8
87606.2
89684.1
91280.1
95136.7
99972.1
106834
101803
25214.4
54421.6
59309.2
60888.6
61513
61705.6
62176.7
87290
87597.7
89671.3
91937.5
95145.1
99954
106794
101708
25499.2
54413.7
59303.9
61341.7
61594.7
61748.2
62175.8
87344.9
87664.2
89705
91962.8
95188
100018
106900
101879
25722.2
54748.2
59520.9
61465.3
61632.8
61784.4
62241.5
87407.5
87740
89785.9
91403.3
95257.7
100157
107136
102351
26942
55295.7
59859.7
61209.2
61730.5
61836
62308
87550.4
87903
88736.8
91569.1
95114.2
100351
107467
102942
25727.1
55593.1
60071.6
60418.4
60872.2
61910.7
62420.1
87671.9
88066
88999
90594.9
94872.8
99542.4
106814
103664
25351
54053.1
57867.9
59382.5
60984.2
62031.4
62531.1
87757.4
88182.7
89144.3
90923.1
93785
100128
107308
104070
26325.9
52515.7
56765.3
59448.8
61096.5
62138.4
62618.8
87814.1
88253.8
89229.5
91006.9
93930.2
100473
107608
104381
25574
52474.9
56885.5
59517.7
61172.3
62208.6
62679.1
87840.8
88284.2
89266.2
91060.1
93981.5
100574
107742
104562
24530.9
52575.8
57011.5
59589.5
61214.1
62243.2
62709.8
82489.2
82411
82230.2
81959.6
81958
85928.2
89448.3
102335
13534.8
32342.7
43560.2
49724.3
53762.2
56130.2
57192.7
82474.4
82392.6
82208
81932
81942.6
85882.7
89402.6
102128
3285.23
31777.2
43236.5
49579.3
53690.5
56083.1
57157.1
82443.5
82351.9
82159.7
81914
81889.2
85764.1
89271.6
101997
2210.3
31471
43097.6
49498.8
53611.8
56021
57103.9
82401.9
82281.2
82083.1
81969
84598.1
85689.5
89008.1
101781
3048.41
31353.5
43170.8
49525.9
53551.3
55960.4
57050.3
82346.6
82204.6
82057.6
83930
84608.1
87417.3
89948.6
101592
2521.69
30698.9
43422.3
50063.2
53561.9
55943.1
57014.8
82289.6
82214.8
83629.5
83856.5
85796.9
88134.5
89750.7
100970
2288.27
29611.5
43163.1
49881.3
54073.6
55963.1
56996.4
82301.8
82236.6
83549.3
83850.1
86414.5
88034.9
89615.2
100551
2483.09
28499.5
42655.8
50086.6
54025
55977.6
57006.6
82312.8
82242.5
83529.6
84824.2
86400
88016.6
89594.2
100394
4604.44
28603.3
42584.4
50253.3
54063.6
56020.9
57018.8
82357.9
82294.6
83560.8
84850.1
86442.9
88075.9
89689.2
100829
5924.82
29081.4
42986.5
50441.2
54163.1
56075.8
57085.6
82400.6
82328.9
83645.2
83990
86528.7
88205.8
89873
101290
2282.31
30747.4
43694.8
50579.2
54307.5
56126.8
57134.8
82508.8
82370.2
82241.6
84026.5
86033.2
88406
90114.8
101651
2366.38
31474.6
44182
50415.4
53832.4
56147
57187.2
82605.1
82490.4
82308.4
82222.2
84897.6
86119
89532.2
102177
3373.16
31565.6
43702.8
49854.7
53805.6
56170.4
57238.1
82677.7
82592.1
82413.8
82186.5
82201.4
86072.3
89559.2
102347
2395.94
31534.3
43309.9
49718
53817.5
56212.2
57286.9
82728.4
82653.2
82483.5
82228.8
82271.9
86212.6
89790.3
102587
4520.6
31559.9
43310
49706.1
53846.5
56249.9
57327
82753.2
82681.8
82515.8
82267
82298.6
86315.3
89917.8
102728
2446.71
31557.3
43413.2
49742.7
53870.1
56274.4
57350.1
77222.1
76574.5
75234.2
73125
72827.6
71893.9
74449.2
2183.59
23360.9
35880.1
43374
48586.7
51709.3
53162.2
77215.5
76565.4
75223.4
73115.3
72804.7
71860.8
74413
2192.67
23606.2
35790.8
43327.1
48542.9
51673.5
53132.7
77206.4
76555.4
75201.2
73092.6
72813.5
71822.5
74307.7
2216.55
23354.2
35851.2
43294.6
48490.1
51632.8
53091.1
77208.8
76552.1
75182.5
73255.2
73104.6
71734.2
74101.7
2227.64
23356.1
34823.1
43373.6
48455.4
51600.3
53053.7
77227.1
76571.9
75345.5
75280.1
73673.7
73719.2
74688.4
2274.34
20718.1
34030.2
42873.5
48436.9
51594.9
53035.9
77252
76725
76811.8
75568.2
75001.8
74642.5
74615
2494.63
18185.7
32971.7
42671.5
48276.3
51561.9
53032.5
77303.4
76794.5
76803.6
75679.3
75776.4
74672.5
74595
2276.08
15743
32147
42273
48237.8
51545.9
53032
77326.6
76824.1
76815.1
76558.3
75889.9
74701.9
74610.3
2537.88
15688.3
32011
42106.2
48264.8
51582.8
53048.7
77362.5
76853.5
76839.1
76598.4
75926.4
74743.9
74658.3
2286.09
16600.6
32628.2
42349.7
48385
51654.3
53124.4
77374.5
76848.2
76897.2
75782.1
75882.9
74796.5
74736.4
2356.45
20393.1
33677.2
42853.6
48554.2
51745.1
53191.5
77404.9
76749.4
75531.6
75464.4
75134.9
74836.8
74841.3
2325.14
21337.4
34310.9
43258.6
48727.7
51826.3
53230.2
77432.1
76778
75414.3
73499.9
73424.4
72140.8
74129
2317.82
22172.2
35291.8
43702.3
48722
51831.7
53263.8
77463.2
76814.5
75467.6
73365.8
73102.2
72085.1
74523.4
2346.39
23392.2
36056.8
43535.9
48721.8
51849.9
53299.5
77493.5
76845.9
75509.9
73409.4
73140
72171.5
74706.8
2381.22
23672.6
35982.5
43525.3
48743.5
51873.9
53332.3
77510.4
76865.2
75530.2
73427.3
73120.7
72221.4
74810.6
2395.93
23744.7
36012.5
43525.1
48758.3
51893
53352.2
72682
71496.7
69021.3
64743.5
62577.6
55464
51611.9
3591.66
2177.64
21571.1
33197
41018.8
46397.7
49668.1
51237
72679.3
71490.4
69006.4
64715.9
62540.4
55417.7
51605.8
2303.84
2195.64
21674.5
33156
41010.1
46359.5
49633
51203.6
72680.4
71490.8
68980.1
64639
62487.4
55298.2
51453.1
2438.23
2212.55
18940.5
33325.2
40953.9
46295.7
49579.7
51147.7
72704.7
71519.4
68933.3
64623.6
62445.5
55143.3
51337.1
2286.71
2238.26
19275.4
31035.1
40897.3
46206.6
49518.6
51083.8
72765.4
71569.1
68953.5
67583.9
62303.5
57935.3
53115.8
2303.02
2269.71
16634.7
29522.2
39252.9
46089.8
49466.2
51028
72839.6
71665.3
70919.5
67527.2
64242.9
59240.1
53194.2
2316.63
2275.71
14073.2
28124.2
38936.1
45065.3
49382.2
50992.8
72902
71722.9
70959.1
67483.6
65124.2
59292.7
53266.9
3140.88
2189.71
11191.3
27321.7
37971.3
44992.6
49339.5
50966.8
72934.5
71765
70982
68850
65162.5
59346
53311.7
2443.21
2181.55
10854.9
27222.9
37577.7
45022.4
49372.9
50986
72971
71789.8
71012.9
68894
65189
59372.2
53349
2292.01
2175.84
12599.7
27895.8
37831.9
45152.4
49456.5
51066.9
72979.3
71800.8
71062.8
67593.8
65229.5
59379.8
53369.2
2296.18
2334.28
16480.2
28898.6
38592.6
45344.6
49583.5
51167.5
72969.4
71771.5
69155.1
67766.5
64415.1
59393.8
53361.5
2873.65
2303.7
17453.1
29490.4
39595.4
46402.7
49724.1
51245.7
72960
71776.1
69192.6
64879.4
62633.1
55393.6
51576.6
2277.67
2310.61
18284.2
31364.1
41222
46495.8
49775.1
51320.9
72971.7
71782.1
69273.5
64930.5
62712
55507.1
51662.1
2518.21
2371.71
19099.1
33546.3
41229.3
46561.1
49830.1
51389.3
72992.2
71802.3
69316.3
65019.2
62830
55651.7
51768.5
3229.28
2390.02
21978.5
33448.5
41269.6
46612.4
49876.7
51443.2
73004.8
71817.8
69338.8
65052.2
62872
55754
51908.4
2422.49
2405
21937.1
33483.1
41266
46639.9
49903.8
51472.1
69680.5
68053.7
64616.1
58601.6
48346.9
39365.4
16117.6
2274
2184.47
22993.8
34196.5
41848.9
47011.1
50144.4
51645.4
69671.8
68038.2
64578.1
58533.6
48235.3
39258.9
16160.4
2260.85
2196.82
22757.7
34088.8
41783.9
46943.3
50090.2
51595.5
69663.4
68025.6
64532.4
58448.9
48086.5
38862
16057.7
2262.1
2215.24
18921.4
33994.3
41661.9
46832.7
49992.6
51504.3
69675.8
68051.8
64477.4
58383.1
52609.3
38534.3
16060.4
2299.97
2231.6
18960.5
30556.2
41431.8
46652.9
49863.4
51388.1
69731.7
68115.8
64532.9
61136.7
52690
42363.4
22409.9
2293.37
2251.76
15675.7
28548.2
38787.3
46434.1
49741
51271.5
69818.2
68194.5
66342.7
61224.7
55004.4
44310.4
23308.5
2281.59
2253.43
14265.6
27079.7
38357.9
44618.6
49618.5
51192.7
69881.8
68251.1
66459
61283.6
56090
44504.6
23475.5
2292.12
2129.02
12653.8
26493.1
36939
44490.1
49549.1
51142.6
69925.4
68305
66518.4
62706
56131.1
44625
23590.7
2257.94
2301
12386.4
26430.6
36393.3
44499.5
49577.3
51162.9
69968.9
68336
66546.8
62731.5
56131.5
44598.7
23599
2248.35
2206.73
13889.3
27019.4
36642
44646.3
49676.2
51248.8
69989.1
68361.4
66564.9
61353.4
56134.9
44498.2
23557
2276.2
2305
15955.4
27804.6
37586.5
44876.6
49838.4
51382.9
69979.8
68363.1
64778.5
61448.7
55115.1
44401.1
23408.9
2265.69
2329.98
16552
28290.7
39106.6
46777.5
50021.7
51515.8
69982.3
68359.9
64788.7
58685.3
52915.9
38903.4
17875.8
2269.56
2290.14
17506.3
30906.1
41801
46977.1
50148.9
51656
70008
68369.8
64876.1
58785.2
48408.2
39041.9
16320.6
2295.55
2386.97
19259.7
34289.5
41980
47132.8
50279.1
51781.5
70037
68400.4
64932.4
58869.9
48535
39369.7
16344.4
2285.26
2398.52
23060
34365.8
42072.3
47233.2
50374
51874.7
70054.4
68422.4
64973.3
58933.8
48628.7
39614.3
16415.1
2271.85
2412.44
23258.5
34485.7
42121.1
47291.8
50423.9
51923.4
68879.5
67126.3
63380.1
57094.2
46041.3
35599.4
4173.89
2289.45
2181.76
27593.6
38451.2
45549.7
50167.4
52904.6
54200.3
68857.1
67092.8
63306
56927.9
45842.8
35080.5
2800.03
2231.72
2199.91
27358.3
38257.8
45393.6
50050.7
52821.1
54127.8
68830.6
67056.9
63229.9
56693.1
46239.3
33375.2
4685.27
2260.31
2213.96
21314.2
38062.9
45214.6
49871.6
52673.9
53998.5
68827
67073.4
63213.1
56667.4
48809.9
32525.3
7007.84
2281.79
2233.16
21411
33547.8
44854.2
49608
52476.6
53832.1
68880.4
67167.1
63372.7
58544.3
48794.9
35713.1
15574
2295.5
2251.8
17314
30889.4
41431.1
49321.6
52296.6
53664.3
68983.8
67301.8
64526.7
58667.8
50642.2
37305.6
15955.6
2310.28
2275.89
16362.2
29131.4
40912.3
46908.7
52159.1
53551.5
69061.9
67390.2
64658
58879
51672.1
37907.6
16473.8
2292.79
2326.26
14743.7
28478.9
39056
46733.8
52072.9
53479.4
69126.7
67465.7
64775
59944.3
51836.1
38332.3
17324.5
2265.63
2276.42
13337.3
28292.5
38305.3
46728.5
52092.9
53496.8
69177.4
67506.4
64813.4
59952.4
51764.8
38002.9
16609.8
2392.88
2268.39
15799.6
28956.2
38567.3
46880.6
52199.6
53584.9
69205
67525.9
64776.2
58923.8
51607.5
37521.2
16100.9
2285.55
2320.63
17486.9
29762.7
39737
47139
52382.2
53743.9
69196.5
67489.2
63709.3
58923.7
50696.5
37245.1
15971
2277.92
2346.05
17995.3
30282.5
41734
49674.4
52582.8
53918.6
69209.1
67462.6
63616.9
57070.9
49072.6
33549.5
15428.1
2283.43
2326.19
19318.5
33823.7
45267.7
49952.7
52779.8
54116.8
69251.7
67481.6
63659.2
57122.8
46613.8
33180.6
6140.36
2290.13
2757.35
21765.6
38442.2
45570.6
50198.8
52983.9
54298.5
69296.1
67529.2
63732
57327.1
46184.3
35309.2
3871.48
2292.96
2421.2
27402.5
38512.1
45698.5
50362.6
53130.1
54433.6
69324.4
67563.8
63794.5
57467.6
46247.8
35853.4
3144.23
2245.07
2456.71
27820.4
38727.9
45829
50469.9
53210.7
54506.8
70596.1
69169.4
66109
61208.8
51314
40043.8
2211.95
2282.12
20321.1
41123.3
46932
52369.5
55703.1
57634.4
58557.1
70554.7
69106.7
65982.7
60906.8
50862.4
38977.3
2231.44
2287.47
19640.8
40482.6
46533.8
52092.2
55528.1
57517.6
58460.7
70502.4
69029
65841.7
60401
52015.6
37177.8
7942.64
2286.14
2318.48
30342.5
46252.5
51758.9
55257.9
57325.8
58296.3
70476.6
68994.2
65746.2
60243.6
51768.1
36310.8
9906.37
2284.64
2251.11
28562.7
40586.6
51318.8
54900.5
57071.3
58088.1
70518.9
69063.9
65874.7
60557.9
51455.1
37578.1
16398.6
2305.06
2249.72
22417.5
37186.3
47262.8
54627.7
56854.1
57884
70626.1
69231.3
66038.1
60652.8
52430.5
38854.8
17067.2
2269.5
2278.55
21043.9
34860.8
46778
51758.6
56734
57754.5
70716.8
69344.7
66182.5
60961
53298.8
40458.5
20512.5
2273.45
2324.78
17182.3
33836.4
44613.1
51600
56647.2
57665.9
70808.8
69453.9
66345.5
61488.4
53704.2
41755.2
30442
2209.8
2288.97
14243.4
33501.6
43636.4
51608.3
56655
57677.5
70875.2
69515.1
66408.5
61513.5
53567.3
40584.7
19019.8
2297.17
3086.85
19250.3
34432.1
43883.4
51725
56748.5
57760.6
70921.4
69546.7
66383.8
61089.8
53190
39222.7
16903.3
2294.52
5990.07
22010.8
35396.2
45216.1
51943.8
56924.7
57932.2
70929.2
69500.5
66370.5
61048.7
52564.7
38602.5
16363.1
2391.28
2329.58
22582.6
36041.5
47535.6
54948.4
57125.1
58131.4
70960.1
69501.7
66300.3
60853.8
52080.6
36846
15516.2
2317.93
2354.45
24956.5
40715.6
51751.6
55249.4
57378.8
58376.7
71023.6
69565.2
66402.3
60992.2
52538.1
37360.6
9431.6
2283.15
8373.44
29895.1
46697.4
52149.6
55607.9
57652.4
58610.3
71088.8
69644.1
66516
61424.9
51270
39217
2380.84
2313.78
18660.8
40435.5
46768.7
52414.4
55860.6
57848.7
58786.8
71131.5
69699.5
66610
61667.9
51521
40009.3
2398.35
2317.66
19749
41147.8
47151.4
52666.7
56030.4
57965.3
58886.8
74473
73733.6
72153
70409.8
65955.5
65840.1
72070.9
32251.4
59938.4
60764.6
59999.6
62168.2
63148.2
63844.4
64227.9
74408.9
73627.2
71940.8
69790.6
64580.1
61331.3
54416.2
2691.91
53434.6
58637.8
59159
61724.3
62902.9
63690.4
64106.9
74322.1
73488
71724.3
68763.7
64967.1
52328.6
32617
2780.7
27137.2
47324.2
58682.5
61019.8
62532.3
63454.6
63907.4
74256.3
73373.8
71454.1
68380
61126.5
49389.6
24425.5
2452.59
13617
43719.2
52423
60459.7
62060.5
63147.4
63657
74264.6
73372.9
71470.3
66909.4
60447.2
48099.2
24118.3
2345.97
7850.55
34455.2
48410.3
56212
61769.4
62887.1
63420.2
74359.7
73533.3
70547.8
66839.9
60142.3
48419.9
25419.1
2823.4
14682.6
32185.5
45982.4
55964.3
58842.6
62736.9
63280.5
74449
73654.1
70605.1
67169.4
60575.4
50538.5
30452.5
2264.76
2185.15
28352.9
45856
53983.2
58748.7
62636.4
63171.6
74574.9
73801.6
70805.5
67032.6
61298.8
53116.5
40922.5
2097.88
2186.09
28146.6
46368.7
52996
58799.4
62633
63180.2
74665.7
73901
70922.9
67161
61381.6
52697.7
36498.2
2402.39
2306.41
31866.9
46496.7
52952
58812
62704.6
63252
74748.1
73975.9
70965.9
67625.2
60939.1
50051.7
26460.3
2316.22
7781.2
33217.9
46358.1
54014.3
58901.3
62886.2
63435
74788.4
73963
72222.8
67542.5
60839.9
48786
24344.5
2257.02
7152.62
33964.5
46779
56380.7
62048.7
63136.2
63653.9
74858.3
74031
72230.4
69352.6
61604.7
49942.6
24492.6
2327.17
5894.68
38245.6
52571.7
60902.5
62418.1
63456.8
63947.3
74958.3
74161.1
72463.2
69615.3
65834.4
51536
26675.2
2463.55
21871.1
46369.3
59250.7
61470.2
62919.2
63803
64237
75052.2
74288.9
72618
70488.2
65140.4
61442.3
54503.3
2882.6
54195.5
58970.2
59564.5
62123.6
63281.3
64054.3
64457.9
75112.1
74376.7
72760.6
70920.7
65925.8
63328.2
63663.8
5644.99
55858.6
59658.4
60068
62480.9
63510.8
64208.6
64585.8
79562.9
79652.5
79779.9
81714
84654.5
92195.9
128909
147852
105815
82810.7
75374.3
73013
71294.4
70701.4
70494.9
79486.9
79514.8
79550.5
81095.6
83530.8
91860.3
135924
159677
106623
81722.6
74573.5
72540.7
71035.9
70524.2
70357.5
79377.4
79308.3
79301.2
79574.9
81915.6
80589.5
106830
130061
99402.4
75213.5
72982.7
71476.3
70596.2
70242.6
70127.3
79276.2
79130.6
78864.3
78936.4
75782.5
75540.8
81462.8
53288.8
69233.3
70944.4
68552
70560.8
70029.2
69882
69831.4
79242.8
79051.6
78668.5
76143.2
74629.8
69485.6
55372.9
8965.09
37149.7
59186.9
64529.7
67131.1
69519.9
69541
69541.6
79315
79083.8
77034.6
75884.3
72536.9
67228.1
54044.5
2306.2
23367.7
55934.1
62598.4
66783.3
67070.2
69245.6
69345.4
79393
79179.6
77097.9
76037.6
71999
67964.8
57697.3
2301.47
24325.3
64569
65875.5
65618.4
66906.8
69070.2
69194.9
79539.1
79347.2
77320.1
75225.8
72773.5
70136.3
64145.4
2240.27
40602.2
80999.4
69783.2
65300.2
66789.7
69028
69170.6
79656.3
79483.4
77517.7
75512.1
73337.3
71934.5
80369.8
3076.24
37651.1
68094.3
65665.6
64487
66754.6
69097.8
69245.6
79784.2
79634.3
77664.6
76925.7
73408.7
70862
59329.6
2353.25
25137.2
56993.5
62179.9
64796.3
66940.5
69342.4
69469.2
79868.7
79782.7
79665.8
77146.7
74427.4
70237.4
56802
2252.18
29117
57096.4
62440.6
66950.6
69745.1
69759.6
69760.2
79986
79930.3
79868.3
80283.8
76890.9
76579.5
63346.1
2391.12
41136.3
65119.6
68730.9
71034
70397.3
70195
70126.3
80120.6
80117
80231.3
80740.6
83291.2
79986.8
99066.8
121421
97969.7
75102.2
73835.1
72037.3
71042.3
70619.6
70477.7
80235.8
80310.3
80415
82114
84745.6
92955.5
137441
160010
108867
82877.2
75419.6
73128.6
71499
70937.3
70742
80305.2
80425.4
80571.9
82559.3
85664.5
93308.4
136538
165165
109674
83340.8
75978.3
73507.4
71747.4
71115.6
70890.5
84623.3
85295.9
86437.8
89741.8
95518.6
99580.7
116689
124744
105511
93937.8
86471.9
81680.3
78519.5
77128.8
76490.1
84576.4
85205.6
86368.7
89726.2
95572.7
100646
120449
127935
107649
94235.2
86369.5
81474.5
78336.4
76980
76363.3
84499.7
85015.6
86290.7
88775.3
94437.9
100458
115914
139978
111645
95255.4
84879.5
80527.3
77941.9
76675.9
76130
84408.9
84857.3
85890.3
88287.9
89752.6
99175
119390
155090
120204
93426.7
83087.6
79435.9
77349.9
76275.6
75809.4
84348
84711.2
85511.7
85617.4
88390.5
93222.8
109064
179053
117932
88355.6
80043.2
77103.1
76508.6
75809.5
75453.9
84376
84620.4
83987.6
85034.8
86092.6
89477.3
103123
166233
96688
80897.4
77362.9
76002.7
74716.8
75374
75171
84435.3
84659.4
84093.6
84937
85062.5
88093.8
92169.9
75365.6
3062.19
76888
78116.5
74745.5
74280
75112.2
74969
84586.9
84828.5
84300.3
84315.6
85326.3
87643.3
81343.8
12612.2
57185.6
66013.8
80548.3
74057.5
73956.6
75025.6
74919.6
84713.6
84978.7
84546
84645.5
86046
89709.1
87219.7
2260.71
2269.11
39968.3
73408.4
73160.2
73964.1
75121.3
75006.1
84873.9
85192.7
84776.1
86054.7
86916.9
93314
114507
211991
90690.3
75754.6
74341
74079.7
74401
75453.4
75282
85023.4
85502.5
86618.7
86832.2
88587.1
94912.1
118783
207487
113167
85708.5
77951.4
76599.6
76748.1
76029.3
75668.6
85177.5
85732
87015.5
89862.5
91392.9
101389
120267
182022
123919
92860
83055.1
80011.5
77743.1
76601.7
76114.4
85307.6
85909.5
87343.4
90136.8
96198.1
101952
119083
146372
116366
96632.2
85876.1
81185.4
78425.9
77074.1
76501.2
85398.7
86103.9
87392.9
91004.2
97318.9
102437
123257
130509
109797
95701.6
87469.2
82219.7
78894.2
77446.2
76784
85445.7
86188.9
87447.8
91037.4
97579.8
102113
122266
130661
108634
95853.6
87741
82461.1
79099.8