/*--------------------------------*- C++ -*----------------------------------*\
| =========                 |                                                 |
| \\      /  F ield         | OpenFOAM: The Open Source CFD Toolbox           |
|  \\    /   O peration     | Version:  v2012                                 |
|   \\  /    A nd           | Website:  www.openfoam.com                      |
|    \\/     M anipulation  |                                                 |
\*---------------------------------------------------------------------------*/
FoamFile
{
    version     2.0;
    format      ascii;
    class       volScalarField;
    location    "0.027";
    object      p;
}
// * * * * * * * * * * * * * * * * * * * * * * * * * * * * * * * * * * * * * //

dimensions      [1 -1 -2 0 0 0 0];


internalField   nonuniform List<scalar> 
449343
(
101967
102098
102315
102523
102613
102356
101568
100175
98228.8
95938
93594
91471.6
89763.6
88580.6
87978.1
101950
102081
102298
102506
102595
102336
101547
100154
98209.7
95920.7
93577.9
91455.4
89746.5
88562.6
87959.6
101936
102066
102284
102491
102579
102316
101525
100132
98189.9
95905
93565.2
91442.8
89732
88546.2
87942.2
101923
102054
102272
102477
102564
102294
101500
100106
98168
95889.4
93555.4
91433.6
89720.2
88531.6
87926
101912
102044
102262
102465
102549
102271
101473
100078
98144.9
95874.6
93548.2
91427.3
89710.7
88518.6
87911
101902
102034
102252
102455
102534
102250
101448
100054
98126.6
95864.1
93543.6
91423.1
89702.7
88506.7
87896.9
101891
102024
102242
102444
102519
102233
101429
100034
98111.3
95855.4
93536.8
91418
89693.8
88494.4
87882.9
101879
102011
102230
102432
102505
102217
101409
100013
98090.8
95842
93525.9
91406.8
89681
88480.2
87868.1
101865
101997
102215
102417
102492
102205
101400
100005
98081.8
95826.6
93507.7
91388.1
89663.4
88463.5
87851.8
101848
101980
102198
102400
102479
102195
101392
99996.7
98068
95804.3
93482.8
91361.7
89640.5
88444.2
87834.1
101831
101962
102179
102382
102465
102186
101386
99990.2
98056
95783.9
93456.1
91334.1
89616.5
88423.8
87815.8
101812
101943
102159
102364
102449
102178
101382
99985.5
98045.7
95765.5
93430
91306.9
89592.4
88403.1
87797.1
101793
101923
102140
102345
102432
102167
101374
99978
98033.6
95746.7
93405
91281.1
89569.2
88382.7
87778.2
101773
101904
102120
102326
102414
102153
101361
99965.3
98017.6
95726.1
93381.3
91257.3
89547.2
88362.6
87759.2
101754
101884
102100
102307
102395
102135
101344
99948.4
97999.1
95705.6
93359.5
91235.6
89526.5
88342.8
87739.9
101821
101998
102315
102676
102941
102906
102254
100800
98603.1
95974.4
93332.6
91011.6
89193.4
87957
87333.7
101804
101982
102299
102660
102924
102887
102233
100779
98584
95958.5
93317.9
90995.9
89176
87938.3
87314.4
101789
101968
102286
102647
102910
102867
102210
100756
98565.6
95946.7
93309.3
90984.9
89161.2
87920.9
87295.6
101777
101956
102276
102637
102896
102844
102178
100720
98540.3
95934.2
93305.6
90978.8
89149.4
87904.8
87277.7
101766
101947
102268
102629
102885
102813
102144
100685
98498
95922.7
93307.8
90977.7
89140.4
87890.4
87260.8
101757
101939
102262
102624
102875
102793
102114
100658
98484.3
95917.3
93313.9
90980.4
89133.9
87877.3
87245
101746
101930
102254
102616
102861
102781
102095
100638
98470.7
95918.7
93328.8
90984.5
89126.8
87865
87230.1
101735
101918
102243
102605
102848
102765
102072
100567
98443.5
95903.5
93320.5
90975.2
89114.1
87850.8
87214.9
101721
101904
102228
102590
102834
102753
102067
100609
98442.3
95891
93301.1
90955.4
89096.7
87834.2
87199.1
101704
101886
102209
102570
102821
102738
102058
100602
98427
95858.4
93253.7
90919.6
89072.3
87815.2
87182.6
101686
101867
102187
102547
102802
102729
102059
100599
98412
95833.9
93217.3
90885.5
89047
87796.1
87166
101668
101847
102166
102526
102784
102729
102062
100602
98418.5
95811.2
93181.1
90852.9
89022.3
87776.9
87149.2
101649
101827
102144
102505
102765
102721
102060
100604
98410.5
95789.5
93149.7
90823.8
88999
87757.8
87132.1
101630
101808
102124
102483
102745
102706
102049
100591
98392.7
95764.3
93121.6
90798.1
88977.1
87738.8
87114.4
101611
101788
102104
102463
102726
102688
102033
100575
98374.2
95742.5
93098.3
90775.8
88956.6
87719.5
87095.8
101445
101730
102272
102993
103724
104248
104007
102396
99527.9
96013.2
92640.1
89868
87810.7
86460.8
85794.2
101427
101713
102257
102979
103709
104230
103983
102373
99509.4
96000.6
92628.2
89852.8
87792.3
86440.5
85773.2
101413
101700
102246
102971
103702
104214
103956
102353
99494.4
96000.8
92629.6
89844.6
87775.9
86420.1
85751.1
101401
101690
102240
102969
103700
104193
103902
102311
99442
95998.1
92646
89845.8
87762.6
86400
85728.7
101391
101683
102239
102972
103698
104146
103805
102198
99352
96015.6
92671.8
89854.3
87753.4
86381.3
85706.7
101382
101678
102241
102978
103706
104112
103754
102173
99342.5
96035
92716.7
89871.9
87747.4
86364.9
85686.4
101373
101671
102237
102983
103689
104109
103727
102144
99327
96045
92828
89896.2
87745.8
86350.9
85668.5
101362
101661
102228
102976
103684
104108
103734
102139
99303.1
96030.9
92817.9
89888.3
87733.8
86336.7
85652.6
101348
101646
102212
102957
103664
104084
103703
102120
99302.1
96018.4
92801.6
89867.6
87715.8
86320.4
85637.9
101333
101629
102192
102928
103655
104060
103701
102117
99287.9
95980.2
92660.1
89813.7
87687.5
86304
85624.9
101315
101607
102161
102894
103618
104065
103722
102117
99271
95930.8
92584.7
89764.9
87662.1
86288.7
85613.3
101297
101586
102136
102863
103593
104081
103790
102197
99324.9
95877.6
92524.1
89722.1
87637.4
86273.7
85601.7
101280
101566
102111
102835
103564
104074
103810
102203
99341.1
95845.2
92471.6
89685.1
87615.2
86258.5
85589.1
101262
101547
102089
102809
103538
104055
103805
102190
99320.1
95807.5
92432.8
89656.1
87594.7
86242.3
85574.6
101243
101527
102068
102788
103516
104036
103790
102174
99300.9
95782.1
92406.5
89633.1
87575.1
86224.6
85557.7
100710
101152
102033
103333
104922
106501
107429
105522
101177
95803.9
91190.6
87791.4
85451.5
83987.7
83286
100692
101135
102018
103321
104912
106488
107397
105498
101152
95794.6
91180.7
87774.3
85429.8
83964.1
83261.8
100676
101121
102010
103320
104917
106485
107371
105492
101172
95829.1
91195.7
87764.2
85407.2
83937.3
83233.6
100662
101111
102009
103335
104936
106506
107174
105470
101055
95916.8
91254.9
87766.4
85385.2
83908
83202.4
100651
101105
102016
103354
104968
106431
106390
105141
101809
96057.2
91339
87787.9
85365.8
83877.8
83170
100642
101103
102036
103416
105042
105642
106245
105094
101838
97289.4
91470.3
87822.8
85353.3
83848.8
83139.2
100632
101101
102045
103435
104385
105667
106196
105035
101794
97307.3
92759.5
87852.2
85342.8
83827.8
83114.1
100622
101094
102043
103434
104375
105679
106209
104933
101780
97306.4
92732.1
87843.4
85339.1
83815.5
83095.6
100610
101078
102020
103410
104357
105654
106175
104997
101773
97289.9
92722.9
87822.9
85310.2
83797.1
83084.1
100598
101060
101994
103372
104994
105599
106169
105014
101763
97262.6
91422.8
87770.2
85298.3
83790.5
83079.7
100582
101036
101945
103281
104895
106356
106286
105048
101762
95977.3
91257.3
87702.9
85278.2
83788.3
83079.1
100569
101017
101915
103240
104838
106401
107076
105366
100943
95802.7
91138.1
87646.7
85263.3
83784.7
83078.3
100554
100999
101886
103194
104789
106354
107233
105347
101017
95674.7
91039.9
87607.6
85249.5
83778.7
83074.5
100539
100981
101863
103163
104751
106322
107228
105320
100969
95603.2
90986.7
87579.7
85234.8
83768.7
83066.2
100522
100963
101843
103140
104726
106299
107220
105303
100951
95572.6
90957.4
87558.2
85218.3
83754.3
83052.4
99418.2
100031
101303
103331
106185
109762
113618
110981
103678
94609.9
88286.9
84380.8
81921.1
80470.3
79803.8
99397.7
100011
101286
103320
106179
109758
113586
110962
103671
94613.3
88276
84355.8
81891.9
80441
79774.7
99377
99993.5
101275
103324
106207
109790
113578
110955
103718
94660.9
88287.7
84328.2
81854.2
80402.9
79736.9
99356.7
99978.3
101275
103374
106349
109939
111243
111007
105279
95100.8
88433.1
84319
81808.2
80356
79691.2
99337.6
99965
101286
103421
106420
108431
111185
110904
105341
97355.5
88567.7
84302.7
81755.8
80301.2
79640.3
99322.5
99964.7
101331
103612
105549
108599
111179
110749
105258
97569.3
90773.3
84361.1
81690.8
80250.1
79590.5
99306.8
99950
101323
103022
105605
108676
110232
110053
105582
98559
90952.5
86199.2
81600.2
80192.5
79547.8
99299.2
99949.7
101379
103016
105638
108701
110243
110023
105600
98598.5
91018.5
86243.1
81696.9
80172.4
79529.6
99287.5
99929.2
101297
102991
105612
108681
110211
110024
105572
98588.4
90991.8
86220.7
81562.3
80163
79518.6
99286.3
99929.5
101297
103575
105503
108565
110261
110029
105553
97594.4
90815.6
84317.4
81646.1
80196.7
79533.6
99279.6
99904.7
101223
103357
106354
108406
111081
110703
105172
97407.9
88498.1
84224.4
81672.2
80213.7
79552.2
99277.4
99898.8
101195
103292
106267
109852
111114
110885
105275
94999.6
88325
84205.8
81691.4
80236.9
79571.1
99272.1
99887.4
101167
103212
106091
109670
113455
110838
103571
94507.5
88134.7
84175.6
81700.5
80248.4
79581.9
99263.6
99876.2
101149
103181
106036
109607
113428
110791
103484
94418.4
88082.5
84164.3
81700.8
80249.9
79583.5
99250
99861.5
101132
103157
106006
109575
113420
110770
103447
94372.3
88052.6
84149.9
81691.6
80241.3
79574.8
97321
98055.1
99641.4
102364
106712
113581
119189
124682
111222
90160.2
82741.9
79100.3
76973.8
75843.9
75362.8
97295.8
98030.4
99618.5
102348
106710
113580
119171
124653
111194
90140.3
82710.6
79055.8
76932.5
75807
75327.8
97265.5
98001.6
99593.2
102326
106714
113608
119144
124607
111130
90069.1
82633.1
78966.1
76866.1
75752.2
75277.8
97231.5
97973.1
99579.9
102369
107071
111425
119214
124659
111053
94484.6
82676.6
78809.9
76771.4
75680.5
75213.3
97192.7
97931
99541.7
102419
105850
111677
119459
122172
112350
95150.8
85897.7
78627.8
76592.2
75577.1
75136
97162.7
97895.2
99582.2
102003
105940
110731
117658
121056
112323
97422.4
86010.1
80998.6
76413.3
75459.4
75056.4
97130.5
97850.1
99561.5
102031
106066
110748
116722
121002
112793
98379.2
87724.2
81013.3
76263.6
75355.6
74988.9
97113.9
97821.9
99562.8
102085
105422
110235
116723
120970
112783
98441.7
87724.5
81010.7
78197.4
75299.4
74962.9
97115.9
97836
99548.8
102046
105405
110696
116715
120971
112799
98459.7
87726
80968.1
76247.3
75332.8
74962
97136.3
97867.8
99552.8
101950
106008
110728
116675
120998
112813
98409.1
87748.1
80997.9
76367.5
75406.3
75000.6
97148.8
97885.3
99491.7
102371
105791
111675
117512
121995
112299
97265.9
85958.5
78559.8
76512.4
75494.2
75052.1
97171.1
97912.1
99518.4
102302
107001
111378
119154
124564
110961
94561
82578.1
78704.4
76661.4
75566.3
75097.8
97183.5
97917.5
99505.1
102236
106618
113505
119032
124465
110968
89913.1
82484.6
78819.3
76716.9
75602.6
75128
97187.9
97921.4
99507.5
102234
106592
113450
119014
124470
110984
89927.9
82516.1
78867.7
76746.5
75621.7
75142.6
97180.6
97913.5
99496.9
102216
106558
113415
119013
124472
110977
89903.7
82505.3
78872.5
76749.8
75621.2
75140.3
94199.4
94906.8
96488.7
99374.9
104296
111058
127453
157437
115726
82780
72571.2
71211.7
70442.4
70184.7
70110.7
94167.7
94874
96453.6
99337.4
104265
111031
127406
157395
115638
82710.8
72492
71135.4
70389
70141.3
70071.2
94122.3
94822.2
96392
99247.2
104137
110987
127289
157293
115525
82605.8
72313.6
70993.9
70294.1
70069.7
70011.2
94065.1
94758.1
96314.1
99016.4
103507
111326
127244
157088
115155
82573.9
75589.7
70602.7
70151.1
69968.5
69931.1
93988.3
94655.9
96116
99066.2
103503
110419
124277
156866
116044
86389.6
75203.7
72660.7
69815.1
69824.2
69829.5
93913.2
94506.2
96561.6
99103.2
103230
110348
122816
151778
120715
88320.4
77371.7
72455.9
71416.3
69645.4
69726.3
93868.4
94452.4
96543.3
99081.9
103230
109898
122657
151579
120718
88346.6
78599.7
73939.2
71293.4
69584.9
69661.8
93834.1
94417.4
96587.9
99092.6
103211
109845
122576
151501
120968
88495.7
78612.7
73909
71279.7
69570.4
69615.3
93859.3
94442.4
96541.7
99105.7
103224
109839
122570
151509
121119
88589.3
78643.7
73915.3
71238.8
69562
69636.4
93899.7
94491.5
96547.4
99041.5
103222
109872
122639
151582
120868
88470.3
78633.7
73948.6
71326
69595.9
69668.5
93963
94627.8
96084.8
99019.6
103446
110354
122792
151765
120774
88377.2
77488
72506.5
69744.2
69744.2
69753.1
94029.6
94720
96272.7
98965.8
103329
111165
124264
156855
115306
86641
75385.8
70497.4
70038.4
69857.2
69820.9
94071.5
94769.6
96334.5
99188.8
104074
110907
127182
157064
115235
82440.5
72169.3
70859.5
70148.9
69926.4
69868.4
94095.7
94800.7
96377.4
99257.2
104183
110946
127265
157201
115293
82450.2
72296.6
70954.4
70211.5
69964.7
69894.8
94097.3
94803.4
96381.9
99263.7
104182
110931
127306
157247
115355
82455.1
72336.7
70993.7
70228.9
69972
69898
89990
90415.4
91364.2
93112.6
95987.3
102574
109770
106873
25178.1
53045.2
57982.2
60909.9
62770.6
63948
64486.6
89953.7
90376.4
91320.5
93056.3
95939
102514
109717
106739
24469.8
52926.2
57846.6
60831.9
62722.9
63906.5
64448.3
89896.4
90306.6
91240.1
92981.9
95814.6
102388
109594
106609
24667.8
52824
57723.1
60744.2
62649.7
63842.4
64392.6
89818.6
90199.5
91106.5
92677.5
97058.6
101954
109303
106411
24020.7
52801.7
59017.4
60765.5
62561
63757.2
64323.7
89713.4
90056.5
90871.2
93772.8
96782.6
102326
110039
106126
24822.5
56076.8
60453.2
61913.5
62553.4
63683.3
64244.1
89590.6
89915.3
91963.7
93637.8
97218.6
102517
109755
105670
25059.7
56410.5
61347.7
61957.1
63520.3
63663.5
64170.8
89548.6
89863.6
91924.5
93541.5
97435.1
102396
109554
105343
25764.1
56589.8
61464.5
62845.4
63440.8
63654.9
64140.1
89523
89825.1
91881.9
94155.5
97403.5
102326
109438
105072
27251.5
56925.9
61552
63324.9
63471.1
63660.6
64106.5
89546.2
89857.9
91882.4
94141.1
97395.9
102316
109425
105066
31152.5
57239.7
61594.1
63324.7
63427.2
63629.7
64117.2
89593.1
89913.5
91929.1
93542.6
97409.6
102371
109523
105302
27264
56858.8
61511.2
62830
63418.9
63614.6
64116.8
89712
90054.4
90864.7
93668.7
97210.6
102483
109722
105648
25255.6
56510.7
61321
61841
62495.5
63607.7
64167.1
89817.5
90194
91089.9
92657.5
96910.9
101582
108944
106158
25329.9
54593
58825.2
60675.4
62449.5
63651.5
64218.3
89887.9
90295.9
91223
92949.5
95780.2
102113
109349
106393
23993.5
52590.2
57587
60612.5
62518.8
63710.3
64259.4
89930.4
90351.7
91292.6
93026.2
95906.3
102415
109578
106592
23865.6
52603.5
57665.5
60668.6
62561.4
63744
64284.6
89940
90364.5
91310.6
93055.1
95927.2
102486
109663
106694
23878
52667.2
57769.2
60716
62576.3
63751.6
64288.5
84958.3
84862.1
84647.3
84328.8
84285
88247.3
91830.4
104793
2818.83
32030.9
44462.3
51165.8
55569.8
58147.6
59307
84924
84825.1
84608.9
84288
84260.8
88196.8
91781.1
104575
2966.61
32014.8
44368.7
51135.3
55541.7
58115.5
59275.4
84873.2
84766.3
84545.3
84258.5
84215.1
88092.2
91675.9
104481
2678.89
32025.9
44365.3
51133.7
55516.1
58081.1
59237.1
84807.4
84673.2
84451.1
84315.5
86938.2
88043.5
91455.5
104325
2912.49
32193.8
44568.3
51317.7
55513.9
58055.8
59202.3
84726.8
84572.5
84411.8
86261.1
86949.7
89811.4
92474.5
104242
3320.8
32028.6
45127.3
51980.5
55591.9
58065.1
59178.3
84638.9
84554.9
85932.2
86167.6
88123.3
90538.6
92301.2
103753
3234.27
32352.7
45417.7
51931.6
56146.6
58079.4
59158.9
84617.7
84540.8
85820.8
86118.3
88708.3
90404.9
92138.9
103460
14363.5
32507.8
45404
52236.9
56098.3
58066
59140.5
84603.4
84519.2
85767.3
87050.8
88643.2
90321.2
92027.5
103166
5758.89
32384.4
45365.7
52410.4
56056.8
58060.5
59107.2
84625.9
84545.9
85770.4
87037.9
88630.6
90300.7
92000.2
103182
3080.33
32422.5
45365.4
52400.1
56044.9
58037.7
59117.3
84657.6
84565
85830.1
86142.4
88664.8
90354.6
92070.7
103398
2703.83
32318.6
45367.4
52214.4
56076.5
58024.4
59105.9
84758.5
84599.4
84419.1
86154.1
88120.3
90489.8
92222.8
103680
2302.89
32197.7
45331.3
51838.2
55514.4
57987.5
59102.5
84851.7
84713.4
84482.6
84316.1
86950.8
88121
91539.9
104221
3795.91
32037.2
44665.3
51234.1
55421.9
57958.2
59103.7
84921.6
84812.5
84587.4
84294.8
84232.6
88028.6
91510.6
104319
2551.5
31983.4
44280.4
51035
55404.7
57963.2
59116.6
84966.3
84866.3
84646.3
84317.9
84288.7
88144.4
91697.9
104479
2918.93
31933.7
44260
51011.5
55406.3
57972.9
59128.8
84978.6
84882
84665.1
84341.8
84299.6
88223.8
91793.3
104570
2406.16
31940.5
44343.7
51022.1
55407.5
57974.8
59128.8
79795.5
79116.2
77708.6
75483.6
75128.4
74013.6
76480
2304.68
24247.9
37265.1
45212.4
50738.3
54050.5
55595.1
79768.9
79088.5
77682.8
75466.2
75098.1
73980.1
76447.8
2299.03
24201.1
37241.1
45213.7
50715.7
54022.4
55565.7
79738.1
79059
77646.5
75435.9
75107.6
73969.8
76390.6
2296.51
23980.4
37311.1
45219.5
50696.8
53997.9
55531.8
79711.3
79028.4
77601.4
75591.4
75401.7
73927.7
76263.4
2297.16
24114.2
36349.4
45400.1
50701.7
53988.1
55502.6
79695.8
79012.2
77735.5
77645.9
75964.9
75998.3
76963.3
2307.44
22019.1
35830.7
44941.2
50736.7
53998
55484.9
79682.7
79132.2
79166.1
77876
77278.9
76934.8
76934.2
2257.44
21935.3
35471.7
44877.8
50513.4
53940.8
55466.5
79687.5
79139.9
79120.1
77943.6
78011.4
76911.9
76851.6
2287.38
21479
35224.7
44535
50463.1
53877
55423.3
79685.2
79139.4
79100.6
78770
78062.5
76841.9
76727
2286.56
20907.9
34971.1
44330.1
50389.6
53850
55382.7
79708.9
79155
79103.4
78776.7
78040.1
76792.4
76652.7
2315.31
20754.2
34931
44304.2
50385.1
53842.1
55391.9
79724.1
79156.2
79133.1
77933.2
77953.2
76784.2
76653.1
2276.87
21333.2
35121.5
44484.8
50435.2
53875.3
55405.5
79769.2
79078.2
77770.2
77639
77177.6
76786.3
76709.1
2273.62
21703.6
35342
44782.3
50644.8
53914.6
55407.2
79814.9
79126.4
77692.8
75640.7
75480
74041.7
75925.2
2291.2
22674.5
36361.5
45324.1
50617
53896.6
55411.4
79861.9
79180.5
77761.5
75538.3
75188.2
73962.2
76287.1
2299.47
23980.7
37303.1
45158.7
50607.3
53896.8
55426.3
79898.4
79218.3
77810.4
75578.9
75228.7
74042.6
76448.9
2294.21
24185.7
37236.7
45145.6
50615.8
53905.1
55440.4
79909.6
79232.5
77826.8
75595.3
75210.8
74086.9
76540
2292.98
24267.8
37280.4
45137.6
50618.6
53907.7
55442.1
75406.5
74177.4
71604.5
67143.7
64838.3
57320.6
53119.9
2824.23
2294.02
22984.8
35141.3
43389.1
49042.3
52463
54108.7
75384.4
74153.9
71578.4
67117.1
64802.8
57280.3
53095.2
2298.21
2299.48
23006.3
35120.2
43380.3
49001
52425.5
54069.4
75362.9
74135.1
71542.3
67046.2
64766.2
57214.7
53050.9
2287.42
2296.58
19801
35224.3
43333.5
48947.9
52375.6
54013
75352.4
74131.4
71468.1
67022
64735.5
57135.4
53086.9
2303.55
2299.75
20256.9
32791.1
43315.9
48880
52322.7
53946.3
75366.7
74129.2
71429
69976.3
64562.3
60077.8
55149.9
2344.11
2291.97
18222.8
31523.1
41604.7
48773.1
52273.2
53877.9
75386
74153.8
73362.3
69850.3
66494.5
61448.3
55535.3
2702.76
8193.57
18005.1
30663.4
41371.4
47605.7
52140.9
53809.4
75392.4
74145.9
73332.7
69711.5
67293.9
61393
55460.3
2947.66
2327.72
16940.9
30110.6
40336.3
47460.2
52025.8
53723.3
75395.8
74152.7
73307
71051.5
67222.8
61243.5
55092.9
2446.06
2287.05
15703.5
29594.8
39737.2
47356.4
51974.7
53671.6
75429.5
74173.8
73321.9
71061.4
67184.8
61143
54917.9
2599.36
2264.62
15441.2
29515.5
39694.9
47359.2
51983.8
53687.3
75461.8
74212.8
73390.9
69734.4
67222.4
61118.2
54857.9
3132.94
2292.92
16608.4
29931.9
40279.3
47451.3
52065.9
53741.3
75495.1
74245.7
71522.4
69993.7
66434.6
61154.3
54831.4
3162.75
2306.49
17635.4
30489.6
41328.7
48676.9
52184.4
53799
75533.5
74306
71632.3
67145.5
64715.2
57079.1
52990.4
2922.05
2294.34
18933.1
32693.8
43251.1
48798.7
52237.3
53863.4
75584.5
74357.2
71761.1
67248.5
64856.2
57230
53039.5
2468.28
2296.43
20007
35255
43291.9
48878.5
52292.6
53924.4
75627.7
74403.4
71837.2
67372.3
65016.8
57406.6
53165.7
2439.17
2296.87
22942.2
35196.3
43337.2
48936.3
52334.5
53968.8
75643.5
74424.1
71868
67417.7
65079.1
57528.5
53308.8
2281.9
2296.51
23155.4
35281.2
43355.5
48966.4
52352.3
53985
72621.7
70949.8
67409.3
61199.8
50581.9
41134.6
16902
2279.7
2365.44
24200.6
36835.4
44898.8
50262
53504.2
55053
72596.4
70922.4
67369.8
61153.3
50527.7
41042.4
17015.9
2251.94
2302.7
24453.7
36760.3
44827.3
50190.5
53443
54994.5
72567.4
70894.3
67321.4
61097.2
50441
40699.6
16864.8
2229.93
2302.04
20365.9
36671.1
44709.3
50079.2
53342.6
54900
72541
70883.2
67235.3
61014.3
54959
40422.3
16874
2282.98
2299.66
20466.1
32914.2
44496.2
49906.5
53208.5
54775.8
72538.3
70880.7
67213.9
63652.7
55008.5
44371.2
23719.9
2288.43
2292.66
17574.4
30991.3
41655.7
49671.9
53071.1
54637.7
72550.7
70867.6
68887.7
63612.8
57226.4
46405.8
25622.1
2290.37
2289.61
16928.8
29598.9
41199.8
47600.3
52873.9
54504.3
72546.2
70840.8
68902.3
63510.6
58134.4
46343.4
25282.9
2325.42
2341.29
15217.9
28682.2
39498.6
47321.7
52709.9
54375.3
72555.5
70850.6
68893
64864.1
57983.8
46068.3
24512.9
2304.76
2271.33
13382.8
27852.5
38518.9
47155.7
52632.3
54311.3
72605.7
70892.3
68915
64867.8
57932
45922.9
24293.2
2290.3
2278.14
12906.9
27686.9
38451
47170.7
52659.4
54334.2
72672
70976.2
68984.7
63548.1
58018.5
45910.3
24249.9
2282.89
2284.66
14516.8
28358
39425.4
47342.6
52790
54429.8
72739.3
71070.9
67390.8
63775.9
57135.4
45959.6
24174.4
2292.14
2295.16
16581.1
29365.6
41222.7
49562
52975.1
54559.8
72821.1
71163.8
67518.7
61275.8
55107.6
40526.5
18599.4
2287.76
2290.2
18474.3
32754.4
44419.5
49826.2
53130.9
54703.2
72912
71250.6
67696.8
61483.8
50787.8
40787.2
16920.5
2248.25
2302.58
20374.8
36704.6
44682.3
50029.1
53279.7
54831.7
72982.5
71329.9
67817
61642.1
51028.4
41243.8
17008.3
2231.57
2301.37
24762.2
36908.6
44820.2
50158.6
53381.8
54922.6
73012.8
71368.4
67880.8
61737.3
51167.7
41544.8
17194.6
2247.12
2301.66
25143.9
37063.9
44912.3
50228.3
53429.3
54962.6
72106.2
70326.9
66511.2
60071.2
48638.1
37782.1
3689.35
2286.03
2322.74
30097.3
42673.6
49536.6
54151.9
56890.4
58186.4
72074.3
70293.4
66462.3
59976.7
48662.9
37451.8
3359.71
2243.36
2529.43
30523.4
42204.7
49361.6
54030.7
56801.1
58108.4
72034.5
70253.3
66402.6
59819.2
49231.8
35731.4
6059.67
2247.09
2307.57
23840.8
41912.9
49156
53846.3
56653.6
57980.1
71993
70230.4
66352.9
59779.4
51614.2
34957
8358.6
2261.46
2300.63
23944.9
36919.9
48810.6
53579.8
56452.9
57809.3
71977.4
70237.8
66398.5
61367.6
51443.1
37892.6
16786
2279.82
2296.06
19765.7
34161.1
45117.5
53282.9
56251.5
57621.2
71986
70250.4
67299.4
61257.4
52948.3
39235.1
17313.2
2265.79
2268.22
18360.2
32060.6
44443.2
50523.9
56031.3
57443.9
71976.5
70219.9
67281.1
61157.3
53539.1
39112.2
17655
2318.77
2296.1
15796.3
30636.3
42072.8
50115.5
55828.1
57284.6
71997.3
70235
67289.4
62089.1
53337.9
38732
16652.4
2289.06
2294.62
12937.2
29380.2
40681.7
49881.9
55727.3
57210.5
72063.6
70301.3
67332.8
62095
53288.5
38576.8
16485.4
2309.64
2271.65
12311.9
29124.7
40581.2
49901.6
55766.8
57239.8
72161.8
70420.8
67409.7
61265.8
53435
38650.3
16537.5
2297.17
2273.89
14097.4
30109
41958.4
50153
55936.3
57367.3
72264.4
70522.5
66695
61539.7
52934.1
38872.8
16615.7
2299.57
2365.8
17941.1
31731.8
44513.4
53145.2
56152
57549.9
72387.9
70641.9
66798.6
60241.5
51783.7
35703.4
16371.2
2291.29
2298.97
21164.2
36599.1
48728.6
53506.6
56389.6
57753.6
72521
70773.2
66986.4
60483.4
49878.5
35628
6682.76
2245.42
2307.41
24013.4
41951.7
49143.5
53820.2
56615.2
57937.5
72624.5
70892.5
67159.2
60797.6
49603.3
38255.2
3813.55
2226.77
3543.27
31241.5
42218.8
49347.1
54026.6
56770
58069.1
72674.4
70955
67262
60993.4
49745.4
38873.9
3549.2
2210.8
5460.86
31481
42569.9
49542.3
54148.9
56849.6
58132.5
74142.1
72721.1
69653.2
64754.1
54526.5
42888.6
2308.92
2323.16
24330.3
47839.2
52724.9
57262.2
60430.3
62236
63107.8
74104.7
72680.7
69604.9
64634.4
54557.3
43050.1
2312.48
2322.14
26187.6
46714.4
52173.9
57094.7
60273.3
62128.8
63017
74055.3
72624.3
69534.3
64287.8
56316.8
41119.6
10680.2
2351.71
12703.1
35075.4
51605.8
56721.2
60006.3
61949.6
62867.9
74001
72563.1
69420.6
64161.7
55698.9
40206.8
11925.5
2292.06
6627.77
33505.2
45568.6
56371
59680.3
61717.2
62674.9
73971.1
72535
69402.7
64047.2
55047.3
40845.7
18163.1
2280.19
2309.65
26566.9
42098
52114.4
59436.4
61502.9
62473.7
73969
72552.1
69256.3
63727.5
55206.1
41083.8
18254.1
2404.67
2287.27
24160.4
39278.6
51383.6
56198.1
61316.3
62294.1
73953.3
72514.1
69141.4
63527.4
55155
40595.6
18499.3
2308.15
2202.33
20034.2
37200.4
48471.1
55740.4
61107.5
62126.1
73984.8
72536.8
69134
63765.8
54842.6
39967.5
16981.7
2320.85
5744.14
15546.8
35428.5
46673.1
55466.6
60999.2
62050.2
74068.6
72628.7
69209.3
63795.9
54810.8
39785.9
16743.5
2295.57
2296.11
15703
35172.2
46530.5
55472.2
61039.8
62082.9
74202.1
72791.2
69360.2
63777.7
55119.1
40134.8
16969.7
2276.49
2283.31
18924.8
36535.5
48252.2
55755.3
61212.3
62223.6
74344.5
72923.8
69831.8
64226.4
55408.4
40884.8
17571.1
2301.51
4621.3
23970.4
38709.2
51356.7
59277.6
61414.4
62419.5
74509.4
73111.6
70048.9
64871.2
55920.2
40634.9
17385.5
2276.31
2316.74
28876.6
45039.3
56316.7
59644
61687.8
62649.5
74681.5
73315.1
70356.8
65311.8
57524.9
41646.1
11653.3
2329.55
13642.7
34572.7
51846.5
56823
60045.4
61956.8
62864.2
74816.9
73481.8
70594
65915.2
56138.9
45155
2313.24
2318.36
27054
46747.8
52040.4
57160.2
60323.6
62144.2
63020.4
74886.3
73572.8
70741.9
66244.1
56509.6
46204.7
2318.04
2317.08
27254.6
47165.8
52592.7
57434.7
60498.4
62251.1
63101.5
78320.2
77621.9
76112.1
74601.8
70284.8
72899.5
76137.2
75957.2
85680.6
73943.8
67294.4
67869.9
68497.4
68959.4
69260.5
78280
77572.4
76067.2
74460.8
70285.9
73016.8
80605.9
65881.7
71895.9
69529.4
66429.2
67611.4
68304.1
68846.2
69164.9
78220.7
77488.5
75983
73600.3
71047.8
60476.4
47721.7
33292.1
37998.6
55957
65170.8
66789.8
67924.6
68639.3
69002.3
78149.1
77381.9
75751.7
73319.6
66577.4
57293.8
35874.6
9288.44
19312.2
52523.5
59580.9
66386.2
67569.8
68405.8
68806.7
78098.7
77301.3
75639.4
71230.7
65692.7
54567.3
31170.4
5389.7
13804.9
43825.2
56253.9
62599.1
67356.2
68206.3
68619
78089.4
77309.2
74275.9
70720.3
64128.7
52670.4
30506
2273.66
2315.81
42198.1
53684.7
62085.8
64296.3
68030.1
68472.4
78068.3
77268.7
74057.6
70469.7
63237.1
51372.4
28383.2
2237.23
2236.72
35374.3
51022.4
58900.2
63847.6
67849.3
68318.4
78108.1
77302.1
74044.4
69831
62794.3
50306
25643.2
2295.33
2208.33
30380.3
48432.8
56788.3
63607
67763.3
68253.6
78206.2
77411.3
74144
69903.5
62796.2
50008.5
24460.3
2289.34
2249.4
30265
47984.8
56560.8
63581.8
67797
68285.6
78368.6
77605.1
74361.9
70867.7
63361.4
51049.8
25933.9
2343.46
2808.28
34256.9
49467.5
58385.7
63805.3
67958.4
68423.7
78540.1
77781.6
76215.6
71380.8
64704.5
52976.7
29040.7
2291.07
11055.3
38985.2
51746
61723.2
67262.9
68163.1
68600
78743
78043.4
76561.6
74358.9
66981.8
57509.4
31529.4
2938.44
14282.9
46013.2
59089.4
66512.6
67639.6
68441.2
68828.8
78949.7
78317.2
77027.3
75032.5
73067.8
60376.3
40069.1
20568
36142
55269.9
65870
67159.8
68095.3
68721.8
69051.3
79111
78538.2
77338.3
76322.5
73174
78100.1
92112.9
62418.4
72272.7
69287.8
66622.4
67876.9
68440.1
68925.1
69216.4
79195.2
78661.9
77543.5
76900.6
74157.5
81575.3
102313
88999.7
78222.9
71305.4
67447
68236.4
68658.3
69047.1
69305.9
83622.2
83743.7
83884.1
85878.5
87554.3
95422.5
120948
106015
112209
90827.1
81885.5
79099.8
77025
76168.4
75878.9
83591.3
83700.1
83887.1
85864.3
88018.9
96207.1
128941
121070
105272
88809.7
80987.7
78600.5
76779.3
76046.2
75781.8
83535.4
83584.3
83856.3
84719.6
87880.4
89234.6
113176
133437
104791
83956.5
79528.3
77517.6
76346.7
75810.2
75608.6
83459.8
83462.7
83559.6
84267.1
82386.2
86621.6
103265
120014
89071.1
80542.3
76448.1
76871.8
75992.5
75587.5
75421.3
83397.5
83351.2
83310.7
81183.8
81176.1
79688.2
81862.6
74944.8
63958.8
77474.9
74944.6
74444.6
75675.8
75384.6
75241.6
83390
83258.3
81329.7
80636.9
78205.8
75033.4
67130.9
2290.28
140363
93880.1
74770.6
73989.6
73457.5
75167.9
75107.9
83370.7
83214.2
81167.1
80343.1
76499
73095.3
63871.9
2661.82
38389
75680.7
71801.6
71861.8
73147.7
75005
74975.9
83417.3
83257.9
81168.4
78998.6
76150.5
71782.8
58783.2
2325.05
11427
60838.5
68294.3
70104.8
72920.5
74950.8
74932.6
83517.9
83368.4
81281.5
79102.5
76221
71549.7
55798.9
5768.53
16429.5
59909.9
67579.8
69840.4
72923.9
74986.7
74961.7
83687.9
83582
81513.6
80819.9
76856.8
73441.9
62130
2590.05
36033
64064.5
68842
71352.9
73160.7
75154.9
75098
83863.5
83869.1
83962.6
81499.3
79154.2
76452.3
73909
17286.5
50561.9
69044.9
70824
73863
75754.2
75417.2
75270.1
84078.3
84163.7
84442.9
85456.3
83345.8
86477.6
87349.8
78559.2
72334.3
77240.1
76742.3
77265.8
76191.1
75693.8
75490.1
84287
84452.3
84981.8
86342.8
90508.7
91807.6
123211
157463
112254
85680.1
80776.1
78123.8
76636.9
75959.3
75699.6
84442
84700.4
85217.3
87832.6
91248.7
100950
139080
143044
110108
90052.3
81833.6
78987.5
76963.5
76158.1
75854.6
84517.9
84821.1
85361.6
88217.5
91457.1
100615
130113
130677
110694
91308.2
82452.4
79341.8
77159.2
76268.4
75936.4
88773
89422.1
90402.6
93613.8
97486.6
100357
117074
116970
111324
96328.3
90948.5
87260.1
84131.1
82715.9
82056.1
88777.3
89423.9
90509.1
93811.8
98182.7
101163
117854
114522
107699
96622.8
90607.4
86930.8
83980.7
82614.5
81974.9
88768.4
89339.7
90684.5
93231.8
98140.5
101941
111890
124385
107898
97574.3
90148.8
86288.4
83733
82415.8
81827
88733.2
89281.5
90529.5
93261.8
94745.2
103027
116853
137102
112702
96799.3
89117.2
85806.7
83496.3
82234.1
81675.1
88680.6
89167.7
90262.4
90707.4
94325.6
100249
115460
145050
102466
92279.4
87906.8
84414.9
83111.1
82021.5
81502.7
88659.3
88996.5
88695.1
90199.6
92139.8
97863.9
115194
146641
20179.1
81308.9
87710.9
84215.5
81882.3
81755.9
81367.8
88651
88950.9
88644.1
89919.2
90892.5
97036.7
113647
151363
97468.9
95306.2
87953
83486.2
81732.8
81615.1
81258
88700.8
88994.5
88655.5
88956.8
90643.1
96436.9
111811
172397
135739
98344.3
87631.7
82977.4
81569.4
81578.1
81232.1
88784.3
89089.8
88769.7
89039.7
90766.4
96670.4
113524
190915
134483
98971.2
87693.6
82971.7
81620
81628.1
81261.9
88933.8
89290.3
88961.9
90360.4
91283.2
97666.7
115521
181962
133987
100234
88319.6
83596.8
81859.6
81789.8
81388.5
89111.4
89650.3
90902.9
91153.3
93025.7
99047.5
116713
159398
133627
101733
89218.4
84811.4
83374.5
82122.1
81564.7
89296
89921.9
91347.1
94421.5
96108.9
105733
122213
164935
129827
102109
90817.2
86512
83796.9
82379
81759.9
89437.8
90107.4
91668.5
94610.1
100214
106496
119153
138263
115144
101715
91543
86984.5
84064.6
82578.6
81918.9
89514
90267.9
91573.1
95194.8
100273
103815
118869
118956
109324
98484.7
91804.7
87370.2
84198.9
82714.8
82025.3
89534.5
90301.9
91492.5
94971.4
99178.3
101903
112633
113132
109536
97813.4
91654.7
87451
84263.5
82771.2
82073.3
92859.2
93604
94550.4
96886.3
100475
100580
107583
113032
105106