/*--------------------------------*- C++ -*----------------------------------*\
| =========                 |                                                 |
| \\      /  F ield         | OpenFOAM: The Open Source CFD Toolbox           |
|  \\    /   O peration     | Version:  v2012                                 |
|   \\  /    A nd           | Website:  www.openfoam.com                      |
|    \\/     M anipulation  |                                                 |
\*---------------------------------------------------------------------------*/
FoamFile
{
    version     2.0;
    format      ascii;
    class       volScalarField;
    location    "0.027";
    object      p_rgh;
}
// * * * * * * * * * * * * * * * * * * * * * * * * * * * * * * * * * * * * * //

dimensions      [1 -1 -2 0 0 0 0];


internalField   nonuniform List<scalar> 
449343
(
101830
101960
102178
102386
102475
102218
101431
100038
98091.5
95800.6
93456.6
91334.3
89626.3
88443.3
87840.8
101832
101963
102180
102388
102477
102219
101430
100037
98091.9
95803
93460.2
91337.7
89628.8
88444.9
87841.9
101838
101968
102186
102393
102481
102218
101427
100034
98091.8
95806.9
93467.1
91344.7
89633.9
88448.1
87844.1
101845
101976
102193
102399
102485
102216
101422
100027
98089.5
95810.9
93476.9
91355.1
89641.7
88453.1
87847.5
101853
101985
102203
102407
102490
102212
101414
100019
98086
95815.7
93489.3
91368.5
89651.9
88459.8
87852.1
101863
101995
102213
102416
102495
102211
101409
100015
98087.3
95824.9
93504.3
91383.9
89663.4
88467.4
87857.7
101872
102004
102222
102424
102500
102213
101410
100015
98091.7
95835.7
93517.2
91398.4
89674.2
88474.8
87863.3
101879
102011
102230
102432
102505
102217
101409
100013
98090.8
95842
93525.9
91406.8
89681
88480.2
87868.1
101884
102017
102235
102437
102512
102224
101420
100024
98101.4
95846.2
93527.3
91407.8
89683
88483.1
87871.4
101888
102020
102237
102440
102518
102234
101431
100036
98107.3
95843.5
93522.1
91400.9
89679.8
88483.4
87873.4
101889
102021
102238
102441
102524
102245
101445
100049
98114.9
95842.8
93514.9
91392.9
89675.4
88482.6
87874.6
101890
102021
102238
102442
102528
102256
101460
100064
98124.2
95844
93508.5
91385.3
89670.9
88481.6
87875.5
101891
102021
102238
102443
102530
102265
101472
100076
98131.7
95844.8
93503.1
91379.2
89667.3
88480.8
87876.3
101891
102021
102238
102444
102532
102270
101479
100083
98135.3
95843.8
93499
91375
89665
88480.3
87876.9
101891
102021
102237
102444
102532
102273
101482
100086
98136.5
95842.9
93496.8
91372.9
89663.8
88480.2
87877.3
101683
101861
102178
102539
102803
102769
102117
100663
98465.7
95837.1
93195.2
90874.2
89056.1
87819.7
87196.4
101686
101864
102181
102542
102806
102769
102115
100661
98466.2
95840.8
93200.2
90878.2
89058.3
87820.6
87196.7
101691
101870
102188
102549
102812
102769
102111
100658
98467.5
95848.6
93211.2
90886.8
89063.1
87822.8
87197.5
101698
101878
102197
102559
102818
102766
102100
100642
98461.9
95855.7
93227.1
90900.3
89070.9
87826.3
87199.2
101707
101888
102209
102570
102826
102754
102085
100626
98439.2
95863.8
93248.9
90918.9
89081.6
87831.5
87201.9
101717
101899
102223
102585
102836
102754
102074
100619
98445.1
95878.1
93274.7
90941.2
89094.7
87838.1
87205.8
101727
101910
102235
102596
102841
102761
102076
100619
98451.1
95899
93309.2
90964.9
89107.2
87845.3
87210.5
101735
101918
102243
102605
102848
102765
102072
100567
98443.5
95903.5
93320.5
90975.2
89114.1
87850.8
87214.9
101740
101923
102248
102609
102853
102773
102087
100629
98462
95910.6
93320.7
90975
89116.3
87853.8
87218.8
101743
101926
102248
102610
102860
102777
102098
100641
98466.2
95897.6
93292.9
90958.9
89111.5
87854.5
87221.8
101745
101926
102246
102606
102861
102788
102118
100658
98470.8
95892.8
93276.1
90944.4
89105.8
87854.9
87224.8
101746
101925
102244
102604
102862
102807
102140
100680
98497
95889.6
93259.6
90931.4
89100.8
87855.3
87227.7
101747
101925
102242
102603
102863
102819
102158
100702
98508.6
95887.6
93247.8
90921.9
89097.1
87855.9
87230.2
101748
101925
102241
102601
102863
102823
102167
100709
98510.4
95882
93239.3
90915.8
89094.9
87856.5
87232.1
101748
101925
102241
102601
102863
102825
102170
100712
98511.5
95879.8
93235.7
90913.1
89093.9
87856.9
87233.1
101307
101593
102135
102856
103586
104110
103869
102258
99390.6
95875.8
92502.7
89730.7
87673.4
86323.5
85656.9
101310
101596
102139
102861
103592
104112
103865
102255
99391.6
95882.9
92510.5
89735.1
87674.6
86322.8
85655.5
101315
101602
102148
102873
103604
104116
103858
102254
99396.3
95902.7
92531.5
89746.5
87677.8
86322
85653
101322
101611
102162
102891
103621
104115
103823
102233
99363.6
95919.6
92567.5
89767.3
87684.2
86321.5
85650.2
101332
101624
102180
102913
103639
104087
103746
102140
99293.1
95956.8
92612.9
89795.5
87694.6
86322.5
85647.8
101343
101639
102202
102938
103667
104073
103715
102134
99303.2
95995.8
92677.5
89832.6
87708.2
86325.7
85647.1
101353
101652
102218
102963
103669
104089
103708
102124
99307.4
96025.4
92808.4
89876.6
87726.2
86331.3
85648.9
101362
101661
102228
102976
103684
104108
103734
102134
99303.1
96030.9
92817.9
89888.3
87733.8
86336.7
85652.6
101368
101666
102232
102977
103683
104103
103722
102140
99321.8
96038
92821.2
89887.2
87735.4
86340
85657.5
101372
101668
102231
102967
103695
104100
103740
102156
99327.1
96019.4
92699.4
89852.9
87726.7
86343.3
85664.1
101374
101666
102220
102952
103677
104123
103781
102176
99329.9
95989.7
92643.6
89823.7
87721
86347.6
85672.2
101376
101665
102214
102942
103671
104160
103869
102275
99403.4
95956.1
92602.6
89800.6
87715.9
86352.2
85680.2
101378
101664
102209
102933
103662
104172
103908
102301
99439.2
95943.3
92569.7
89783.2
87713.3
86356.6
85687.2
101379
101665
102207
102927
103655
104172
103922
102307
99437.8
95925.2
92550.5
89773.9
87712.4
86360.1
85692.3
101380
101665
102206
102925
103653
104173
103927
102311
99438.2
95919.4
92543.8
89770.5
87712.4
86362
85695.1
100573
101015
101896
103196
104785
106364
107292
105385
101039
95666.6
91053.2
87654
85314.2
83850.3
83148.7
100574
101017
101901
103203
104794
106370
107280
105380
101034
95676.8
91063
87656.5
85312
83846.4
83144.1
100578
101023
101912
103222
104819
106387
107273
105394
101074
95731
91097.6
87666.1
85309.1
83839.2
83135.5
100584
101033
101931
103257
104857
106428
107096
105392
100976
95838.3
91176.4
87687.9
85306.7
83829.5
83123.9
100592
101046
101958
103295
104910
106372
106327
105077
101745
95998.3
91280.1
87729
85307
83819
83111.1
100602
101064
101997
103377
105002
105598
106201
105050
101794
97245.2
91431.1
87783.6
85314.1
83809.6
83099.9
100613
101081
102025
103415
104360
105643
106171
105010
101769
97282.8
92734.9
87832.6
85323.2
83808.1
83094.5
100622
101094
102043
103434
104370
105674
106204
104928
101775
97301.5
92727.2
87843.4
85339.1
83815.5
83095.6
100630
101097
102040
103430
104372
105669
106190
105012
101787
97304.6
92737.6
87842.5
85329.8
83816.7
83103.7
100637
101099
102033
103412
105033
105634
106203
105049
101797
97296.9
91462
87809.4
85337.6
83829.8
83118.9
100641
101095
102004
103339
104954
106415
106340
105102
101816
96036.1
91316.2
87761.7
85337.1
83847.2
83137.9
100647
101096
101993
103318
104917
106480
107154
105445
101022
95881.2
91216.5
87725.2
85341.8
83863.2
83156.7
100653
101097
101984
103292
104887
106453
107331
105445
101115
95772.8
91138
87705.7
85347.6
83876.8
83172.6
100657
101099
101981
103281
104869
106440
107345
105438
101087
95720.9
91104.4
87697.4
85352.5
83886.5
83183.9
100659
101100
101980
103277
104863
106436
107357
105441
101088
95709.9
91094.8
87695.5
85355.7
83891.7
83189.8
99280.9
99893.3
101166
103194
106047
109625
113480
110839
103541
94472.6
88149.6
84243.5
81783.7
80333
79666.5
99280
99893.5
101168
103202
106061
109640
113469
110840
103553
94495.6
88158.3
84238.1
81774.2
80323.3
79657
99278.9
99895.4
101177
103226
106109
109692
113480
110852
103620
94562.8
88189.6
84230.1
81756.1
80304.8
79638.8
99278.2
99899.8
101197
103296
106271
109861
111160
110924
105196
95022.3
88354.6
84240.5
81729.7
80277.5
79612.7
99278.7
99906.1
101227
103362
106361
108368
111121
110840
105277
97291.7
88508.8
84243.9
81696.9
80242.3
79581.4
99283.3
99925.5
101292
103572
105504
108555
111135
110705
105214
97525.2
90729.2
84321.9
81651.6
80210.8
79551.2
99287.1
99930.3
101303
102997
105581
108652
110205
110026
105555
98532
90928
86174.7
81580.6
80172.9
79528.1
99299.2
99949.7
101379
103011
105633
108696
110235
110015
105593
98591.2
91013.6
86238.2
81696.9
80172.4
79529.6
99307.1
99948.8
101316
103005
105627
108696
110223
110036
105584
98600.6
91006.5
86235.4
81581.9
80182.7
79538.2
99325.6
99968.7
101336
103614
105538
108600
110293
110060
105585
97628.8
90849.9
84356.6
81685.3
80235.9
79572.8
99338.4
99963.6
101282
103415
106413
108460
111135
110757
105226
97461.8
88557
84283.3
81731.1
80272.6
79611
99355.9
99977.3
101273
103370
106345
109931
111187
110959
105348
95078.1
88403.5
84284.3
81769.9
80315.4
79649.5
99370.2
99985.5
101265
103310
106189
109769
113553
110931
103669
94605.6
88232.8
84273.7
81798.6
80346.5
79680
99381.3
99993.9
101267
103298
106153
109725
113546
110904
103602
94536.1
88200.3
84282
81818.5
80367.6
79701.2
99387.4
99998.8
101269
103294
106143
109712
113558
110902
103584
94509.6
88189.9
84287.3
81828.9
80378.6
79712.1
97183.7
97917.8
99504.1
102227
106575
113444
119047
124540
111080
90022.9
82604.5
78963
76836.5
75706.6
75225.4
97178.1
97912.7
99500.8
102230
106593
113463
119048
124530
111071
90022.6
82592.9
78938.1
76814.8
75689.3
75210.1
97167.4
97903.5
99495.1
102228
106616
113509
119041
124504
111027
89971
82535
78868
76768
75654.1
75179.7
97153
97894.6
99501.4
102291
106992
111341
119131
124575
110969
94401.2
82598.1
78731.4
76692.9
75602
75134.8
97133.8
97872.2
99482.8
102360
105786
111613
119395
122106
112283
95087
85834
78568.9
76533.4
75518.3
75077.1
97123.5
97856
99543
101958
105896
110684
117611
121008
112276
97375.8
85966
80954.4
76374.1
75420.1
75017.2
97110.8
97830.5
99541.9
102006
106042
110721
116693
120974
112764
98351
87697.3
80988.8
76244
75336
74969.3
97113.9
97821.9
99557.9
102080
105415
110226
116715
120961
112774
98433.1
87717.1
81005.8
78192.5
75299.4
74962.9
97135.5
97855.6
99568.4
102061
105417
110709
116726
120982
112810
98470.8
87738.2
80982.8
76266.9
75352.4
74981.7
97175.5
97907
99592.1
101984
106042
110760
116706
121029
112843
98439.7
87780
81032.3
76406.8
75445.5
75039.9
97207.7
97944.2
99550.6
102430
105845
111729
117563
122047
112351
97317.4
86012.5
78618.6
76571.3
75553.1
75111
97249.6
97990.6
99596.8
102380
107080
111452
119228
124638
111035
94634.6
82656.6
78782.9
76739.9
75644.8
75176.3
97281.6
98015.6
99603.2
102334
106716
113604
119125
124558
111062
90011.2
82582.7
78917.4
76815
75700.7
75226.1
97305.6
98039.1
99625.2
102351
106709
113568
119126
124583
111097
90045.6
82633.8
78985.4
76864.2
75739.4
75260.3
97318
98050.8
99634.2
102353
106696
113552
119145
124605
111109
90041.1
82642.6
79009.9
76887.2
75758.5
75277.6
94062.1
94769.5
96351.3
99237.6
104159
110916
127311
157293
115582
82637.7
72433.8
71074.4
70305.1
70047.3
69973.4
94050
94756.2
96335.9
99219.7
104148
110909
127283
157270
115513
82588.2
72374.3
71017.6
70271.3
70023.5
69953.5
94024.2
94724.1
96293.9
99149.1
104039
110884
127186
157188
115420
82502.8
72215.5
70895.8
70196
69971.6
69913.1
93986.6
94679.6
96235.6
98937.9
103423
111242
127161
157002
115069
82490.5
75506.3
70524.3
70072.6
69890
69852.6
93929.5
94597
96057.1
99002.5
103439
110353
124211
156800
115978
86323.3
75139.9
72596.9
69756.3
69765.4
69770.6
93874
94466.9
96517.5
99059
103183
110301
122768
151730
120667
88272.6
77325.1
72411.7
71372.2
69606.2
69687.1
93848.8
94432.7
96518.8
99057.4
103203
109870
122628
151550
120690
88318.4
78571.5
73912.3
71268.9
69565.2
69642.2
93834.1
94417.4
96583
99087.7
103204
109837
122568
151492
120960
88487.1
78604.1
73901.7
71274.8
69570.4
69615.3
93878.9
94462
96556.4
99120.4
103236
109850
122581
151521
121130
88600.3
78654.8
73927.6
71253.5
69581.6
69656
93939
94530.7
96581.7
99075.8
103254
109903
122670
151612
120899
88500.9
78664.3
73980.5
71360.4
69635.2
69707.7
94021.9
94686.6
96143.6
99073.5
103500
110406
122843
151815
120824
88427.5
77539.5
72560.4
69803
69803
69812
94108.1
94798.5
96351.2
99044.3
103402
111239
124336
156926
115377
86712.1
75459.4
70575.9
70116.9
69935.7
69899.4
94169.6
94867.7
96432.6
99286.9
104172
111000
127275
157154
115326
82533.7
72267.4
70957.6
70247
70024.5
69966.5
94213.4
94918.4
96495.1
99374.9
104301
111059
127378
157311
115404
82563
72414.3
71072.1
70329.3
70082.4
70012.5
94234.6
94940.7
96519.3
99401
104320
111064
127439
157377
115485
82587.5
72474
71131
70366.2
70109.3
70035.4
89852.6
90278.1
91226.9
92975.3
95850
102432
109626
106727
25032.2
52903
57844.8
60772.6
62633.2
63810.7
64349.3
89836
90258.7
91202.8
92938.6
95821.3
102391
109592
106612
24343.5
52803.6
57728.9
60714.2
62605.1
63788.8
64330.6
89798.3
90208.5
91142
92883.8
95716.5
102285
109488
106502
24561.1
52721
57625
60646.1
62551.6
63744.3
64294.5
89740.2
90121
91028
92599
96975.3
101871
109217
106324
23933.7
52718.3
58934
60687
62482.6
63678.7
64245.2
89654.5
89997.7
90812.4
93709
96718.9
102259
109971
106058
24755
56009.4
60387
61849.7
62494.5
63624.5
64185.2
89551.4
89876.1
91919.6
93593.7
97172
102469
109707
105622
25011.9
56362.7
61299.9
61913
63476.2
63624.2
64131.6
89528.9
89844
91899.9
93517
97406.9
102368
109526
105314
25735.9
56561.6
61436.3
62818.4
63416.3
63635.2
64120.5
89523
89825.1
91877
94148.2
97394.9
102317
109429
105064
27242.9
56917.4
61543.4
63316.3
63466.2
63660.6
64106.5
89565.8
89877.5
91897.1
94153.3
97406.9
102327
109436
105077
31163.5
57250.7
61605.1
63335.8
63441.9
63649.3
64136.8
89632.4
89952.8
91963.5
93576.9
97440.2
102401
109554
105333
27294.7
56889.5
61541.9
62861.9
63453.2
63653.8
64156
89770.9
90113.2
90923.6
93722.6
97262.1
102533
109772
105699
25305.9
56560.9
61371.2
61895
62554.4
63666.6
64225.9
89896
90272.5
91168.4
92736
96984.5
101656
109015
106228
25399.8
54664.2
58898.8
60753.9
62528
63729.9
64296.8
89986
90394
91321.1
93047.6
95878.3
102206
109439
106483
24083.1
52683.4
57685.1
60710.6
62616.9
63808.4
64357.5
90048.1
90469.4
91410.3
93143.9
96024
102528
109688
106701
23974.7
52716.3
57783.2
60786.3
62679.2
63861.8
64402.3
90077.3
90501.8
91448
93192.4
96064.5
102618
109793
106823
24006.8
52799.7
57906.5
60853.3
62713.6
63889
64425.8
84820.9
84724.8
84510
84191.4
84147.7
88105.1
91685.7
104646
2673.49
31888.6
44324.9
51028.5
55432.5
58010.3
59169.6
84806.3
84707.4
84491.2
84170.3
84143.1
88074.2
91656.1
104448
2840.49
31892.1
44251
51017.6
55424
57997.8
59157.6
84775.1
84668.2
84447.2
84160.4
84117
87989.2
91570.4
104374
2572.42
31922.9
44267.2
51035.6
55418
57983
59139
84728.9
84594.7
84372.6
84237
86854.8
87960.2
91369.6
104238
2825.64
32110.4
44484.9
51239.2
55435.5
57977.3
59123.8
84667.9
84513.6
84352.9
86197.3
86885.9
89745.2
92407.1
104174
3253.4
31961.2
45061.1
51916.8
55533
58006.2
59119.5
84599.6
84515.7
85888
86123.5
88076.7
90490.8
92253.3
103704
3186.72
32304.8
45369.8
51887.5
56102.4
58040.2
59119.6
84598.1
84521.2
85796.3
86093.8
88680.1
90376.7
92110.7
103431
14335.3
32479.6
45375.8
52210
56073.7
58046.4
59120.9
84603.4
84519.2
85762.4
87043.4
88634.6
90312.6
92018.9
103157
5750.3
32375.8
45357.1
52401.8
56051.8
58060.5
59107.2
84645.6
84565.5
85785.1
87050.1
88641.7
90311.7
92011.3
103192
3091.34
32433.5
45376.4
52411.1
56059.7
58057.3
59136.9
84696.9
84604.2
85864.4
86176.7
88695.4
90385.3
92101.3
103428
2734.45
32349.3
45398.1
52246.3
56110.8
58063.7
59145.2
84817.4
84658.3
84478
86208.1
88171.8
90540.1
92273.1
103730
2352.14
32248
45381.5
51892.2
55573.2
58046.4
59161.4
84930.2
84791.8
84561.1
84394.6
87024.4
88194.6
91611
104290
3865.81
32108.3
44738.9
51312.5
55500.4
58036.7
59182.2
85019.7
84910.6
84685.5
84392.9
84330.7
88121.7
91601.3
104408
2639.56
32076.6
44378.5
51133.1
55502.8
58061.3
59214.7
85084.1
84984
84764
84435.6
84406.4
88257.2
91808.2
104587
3027.59
32046.6
44377.7
51129.3
55524
58090.7
59246.5
85115.9
85019.3
84802.5
84479.1
84437
88356.3
91923.3
104698
2532.82
32073
44481
51159.5
55544.8
58112.1
59266.1
79658.1
78978.9
77571.3
75346.2
74986.1
73871.4
76335.3
2171.73
24105.7
37127.8
45075.1
50601
53913.2
55457.8
79651.2
78970.8
77565.1
75348.4
74975.5
73857.5
76322.8
2203.34
24078.4
37123.4
45096
50597.9
53904.7
55448
79640
78960.9
77548.4
75337.8
75004.6
73866.8
76285.1
2219.69
23877.4
37213
45121.4
50598.7
53899.8
55433.7
79632.9
78949.9
77522.9
75512.9
75318.4
73844.3
76177.5
2232.29
24030.9
36266
45321.6
50623.2
53909.6
55424.1
79636.9
78953.4
77676.6
77582.2
75901.2
75932
76895.8
2254.35
21951.7
35764.5
44877.4
50677.8
53939.1
55426
79643.5
79093
79122
77831.8
77232.3
76887
76886.3
2216.1
21887.4
35423.9
44833.6
50469.3
53901.5
55427.2
79667.9
79120.3
79095.5
77919.1
77983.2
76883.7
76823.4
2277.08
21450.8
35196.5
44508
50438.6
53857.4
55403.7
79685.2
79139.4
79095.7
78762.7
78053.9
76833.3
76718.4
2281.32
20899.3
34962.5
44321.5
50384.7
53850
55382.7
79728.5
79174.6
79118.1
78789
78051.1
76803.4
76663.7
2316.71
20765.2
34942.1
44315.2
50399.8
53861.7
55411.5
79763.3
79195.5
79167.4
77967.5
77983.9
76814.9
76683.8
2302.91
21363.8
35152.1
44516.7
50469.5
53914.5
55444.8
79828
79137.1
77829.1
77693
77229.1
76836.6
76759.3
2303.76
21753.9
35392.3
44836.2
50703.6
53973.4
55466
79893.4
79204.8
77771.3
75719.2
75553.6
74115.3
75996.3
2326.83
22745.6
36435.1
45402.6
50695.4
53975
55489.9
79960
79278.6
77859.6
75636.4
75281.3
74055.3
76377.9
2370.81
24073.9
37401.2
45256.8
50705.4
53994.9
55524.4
80016.1
79336
77928.1
75696.6
75341.5
74155.4
76559.3
2376.25
24298.5
37354.5
45263.4
50733.5
54022.8
55558.1
80047
79369.8
77964.2
75732.6
75343.2
74219.3
76670
2396.53
24400.2
37417.7
45275
50756
54045
55579.5
75269.2
74040.1
71467.2
67006.3
64696.1
57178.4
52975.2
2677.71
2178.47
22847.4
35004
43251.7
48905
52325.7
53971.3
75266.6
74036.2
71460.7
66999.4
64680.2
57157.6
52970.2
2298.08
2199.14
22888.6
35002.4
43262.6
48883.3
52307.8
53951.6
75264.8
74037
71444.2
66948.1
64663.2
57111.7
52945.5
2287.19
2211.78
19698
35126.2
43235.4
48849.8
52277.5
53914.9
75273.9
74052.9
71389.6
66943.5
64652.2
57052.1
53001.1
2302.41
2243.23
20173.5
32707.7
43237.4
48801.5
52244.2
53867.8
75307.9
74070.4
71370.2
69912.5
64498.6
60011.5
55082.5
2337.72
2262.44
18155.3
31456.8
41540.9
48714.2
52214.3
53819.1
75346.8
74114.6
73318.2
69806.1
66447.9
61400.5
55487.5
2663.18
8145.75
17957.3
30615.6
41327.2
47561.6
52101.6
53770.2
75372.8
74126.3
73308.2
69687
67265.7
61364.8
55432.1
2921.73
2326.93
16912.7
30082.4
40309.4
47435.7
52006.2
53703.7
75395.8
74152.7
73302.1
71044.1
67214.2
61235
55084.3
2437.53
2286.96
15695
29586.2
39728.6
47351.5
51974.7
53671.6
75449.1
74193.4
73336.6
71073.7
67195.8
61154
54928.9
2603.33
2264.67
15452.3
29526.6
39705.9
47373.9
52003.4
53707
75501.1
74252.1
73425.3
69768.8
67253.1
61148.9
54888.5
3158.22
2300.14
16639.1
29962.6
40311.2
47485.6
52105.2
53780.6
75553.9
74304.6
71581.2
70047.6
66486.1
61204.6
54881.7
3210.91
2351.17
17685.7
30539.8
41382.6
48735.8
52243.3
53857.9
75612
74384.5
71710.8
67223.9
64788.7
57152.7
53061.6
2984.46
2312.85
19004.2
32767.4
43329.6
48877.2
52315.8
53941.9
75682.6
74455.3
71859.2
67346.6
64949.4
57323.2
53130.2
2494.81
2371.22
20100.2
35353.1
43390
48976.6
52390.7
54022.5
75745.4
74521.1
71955
67490
65129.6
57519.4
53276.1
2472.59
2385.99
23059.9
35314
43454.9
49054
52452.2
54086.5
75780.9
74561.4
72005.3
67555
65211.5
57661
53438.7
2282.51
2404.59
23292.8
35418.5
43492.8
49103.7
52489.6
54122.4
72484.3
70812.5
67272
61062.4
50444.6
40992.3
16757.3
2277.44
2223.39
24063.3
36698
44761.4
50124.7
53366.8
54915.7
72478.6
70804.7
67252.1
61035.6
50410
40919.8
16890.8
2251.85
2198.1
24336
36642.6
44709.6
50072.7
53325.3
54876.8
72469.3
70796.2
67223.3
60999.1
50342.9
40596.6
16759.4
2229.76
2215.26
20262.9
36573
44611.2
49981.1
53244.5
54801.9
72462.5
70804.7
67156.8
60935.9
54875.6
40338.9
16788.1
2281.11
2242.38
20382.7
32830.8
44417.7
49828
53130
54697.3
72479.4
70821.8
67155.1
63588.9
54944.7
44304.9
23652.4
2285.48
2261.89
17506.9
30925.1
41591.9
49613
53012.2
54578.8
72511.5
70828.3
68843.5
63568.7
57179.8
46358
25574.3
2286.74
2256.72
16881
29551
41155.7
47556.2
52834.6
54465.1
72526.6
70821.2
68877.7
63486.1
58106.2
46315.2
25254.7
2314.45
2316.96
15189.7
28654
39471.6
47297.2
52690.3
54355.7
72555.5
70850.6
68888.1
64856.7
57975.2
46059.7
24504.3
2304.54
2271.26
13374.2
27843.9
38510.3
47150.8
52632.3
54311.3
72625.3
70912
68929.7
64880.1
57943
45934
24304.3
2291.73
2278.49
12917.9
27697.9
38462
47185.4
52679.1
54353.8
72711.3
71015.5
69019
63582.4
58049.2
45940.9
24280.5
2283.98
2285
14547.4
28388.7
39457.2
47377
52829.2
54469.1
72798.2
71129.8
67449.7
63829.9
57186.9
46009.8
24224.7
2293.29
2334.17
16631.3
29415.9
41276.7
49620.9
53034
54618.6
72899.6
71242.2
67597.1
61354.3
55181.2
40600.1
18670.6
2288.25
2308.78
18545.4
32827.9
44498
49904.7
53209.3
54781.7
73010.1
71348.7
67794.9
61581.9
50885.9
40880.4
17011.3
2249.21
2379.47
20468
36802.7
44780.4
50127.2
53377.8
54929.8
73100.3
71447.6
67934.7
61759.8
51146.1
41356.6
17118.7
2231.67
2392.73
24879.9
37026.3
44938
50276.4
53499.5
55040.3
73150.1
71505.7
68018.1
61874.7
51305
41677.2
17324.6
2247.32
2413
25281.2
37201.3
45049.7
50365.7
53566.6
55100
71968.8
70189.6
66373.8
59933.8
48500.8
37644.8
3547.16
2282.01
2188.98
29959.9
42536.3
49399.2
54014.5
56753
58049
71956.6
70175.7
66344.6
59859
48545.2
37334
3237.15
2243.27
2412.05
30405.7
42086.9
49243.9
53913
56683.4
57990.7
71936.4
70155.2
66304.5
59721.1
49133.7
35628.4
5956.67
2246.91
2213.26
23737.8
41814.8
49057.9
53748.2
56555.5
57882
71914.5
70152
66274.4
59701
51530.8
34873.6
8275.21
2260.8
2237.55
23861.5
36836.5
48732.1
53501.3
56374.4
57730.8
71918.5
70178.9
66339.6
61303.8
51379.4
37826.4
16718.5
2278.21
2246.36
19698.3
34094.9
45053.8
53224.1
56192.7
57562.3
71946.7
70211.2
67255.3
61213.3
52901.7
39187.3
17265.4
2265.02
2254.66
18312.3
32012.8
44399.1
50479.8
55992.1
57404.7
71956.9
70200.3
67256.6
61132.7
53510.9
39084
17626.8
2318.41
2291.17
15768.1
30608.1
42045.8
50091
55808.5
57265
71997.3
70235
67284.5
62081.8
53329.3
38723.4
16643.8
2288.47
2291.13
12928.6
29371.6
40673.2
49877
55727.3
57210.5
72083.2
70321
67347.5
62107.3
53299.5
38587.8
16496.5
2310.16
2271.95
12322.9
29135.7
40592.2
49916.3
55786.4
57259.4
72201
70460.1
67444.1
61300.1
53465.6
38681
16568.2
2304.87
2274.41
14128
30139.7
41990.3
50187.4
55975.5
57406.6
72323.2
70581.4
66753.8
61593.7
52985.6
38923.1
16666
2329.07
2414.35
17991.4
31782.1
44567.4
53204
56210.9
57608.8
72466.4
70720.4
66877.1
60320
51857.3
35776.9
16442.4
2292.24
2341.01
21235.3
36672.7
48807.1
53585.1
56468.1
57832.1
72619.1
70871.3
67084.5
60581.5
49976.6
35721.2
6775.96
2245.72
2391.64
24106.6
42049.8
49241.6
53918.3
56713.3
58035.6
72742.2
71010.3
67276.9
60915.3
49721
38372.9
3926.33
2226.9
3660.91
31359.3
42336.5
49464.8
54144.3
56887.7
58186.8
72811.7
71092.4
67399.4
61130.8
49882.7
39011.3
3681.59
2211.01
5598.18
31618.3
42707.3
49679.6
54286.2
56987
58269.8
74004.8
72583.7
69515.8
64616.7
54389.1
42751.2
2213.68
2247.98
24193
47701.9
52587.6
57124.9
60293
62098.7
62970.5
73987
72562.9
69487.2
64516.7
54439.5
42932.4
2231.06
2298.68
26069.9
46596.7
52056.2
56977
60155.6
62011
62899.3
73957.2
72526.2
69436.2
64189.7
56218.7
41016.6
10577.2
2351.33
12600.1
34972.4
51507.7
56623.1
59908.2
61851.5
62769.8
73922.6
72484.6
69342.1
64083.3
55615.5
40123.4
11842.1
2291.12
6541.93
33421.8
45485.2
56292.6
59601.8
61638.7
62596.4
73912.2
72476.2
69343.8
63983.4
54983.5
40779.5
18095.7
2279.23
2248.75
26499.4
42031.8
52050.7
59377.6
61444
62414.8
73929.7
72512.9
69212.2
63683.4
55159.5
41036
18206.2
2358.2
2270.07
24112.6
39230.8
51339.5
56154
61277
62254.9
73933.7
72494.4
69116.8
63502.9
55126.8
40567.4
18471.1
2304.35
2201.45
20006
37172.2
48444.1
55715.9
61087.8
62106.5
73984.8
72536.8
69129.1
63758.4
54834.1
39958.9
16973.2
2320.2
5735.59
15538.2
35419.9
46664.5
55461.7
60999.2
62050.2
74088.3
72648.3
69224
63808.2
54821.8
39796.9
16754.5
2295.83
2300.63
15714
35183.2
46541.5
55486.9
61059.4
62102.5
74241.3
72830.5
69394.5
63812.1
55149.8
40165.4
17000.3
2277.16
2284.49
18955.5
36566.2
48284
55789.6
61251.6
62262.8
74403.3
72982.7
69890.7
64280.3
55459.9
40935.1
17621.4
2343.54
4671.58
24020.7
38759.5
51410.6
59336.5
61473.2
62478.4
74587.9
73190.1
70127.4
64949.6
55993.8
40708.5
17456.6
2276.76
2382.51
28947.8
45112.9
56395.2
59722.5
61766.3
62728
74779.6
73413.2
70454.9
65409.9
57623
41739.3
11746.5
2330.15
13735.9
34665.9
51944.6
56921.1
60143.5
62054.9
62962.3
74934.6
73599.5
70711.8
66033
56256.6
45272.7
2394.15
2341.63
27171.7
46865.5
52158.1
57277.9
60441.3
62261.9
63138.1
75023.7
73710.2
70879.2
66381.4
56647
46342.1
2421.34
2368.14
27392
47303.2
52730
57572.1
60635.7
62388.5
63238.8
78182.9
77484.6
75974.8
74464.5
70147.5
72762.1
75999.9
75819.8
85543.3
73806.5
67157.1
67732.5
68360.1
68822.1
69123.1
78162.3
77454.7
75949.4
74343.1
70168.2
72899
80488.2
65764
71778.2
69411.7
66311.5
67493.7
68186.3
68728.5
69047.2
78122.6
77390.4
75884.9
73502.2
70949.7
60373.4
47618.7
33189.1
37895.6
55854
65072.7
66691.7
67826.5
68541.2
68904.2
78070.6
77303.5
75673.2
73241.1
66494
57210.4
35791.2
9202.61
19226.3
52440.1
59497.6
66307.7
67491.3
68327.4
68728.2
78039.8
77242.5
75580.6
71166.9
65629
54501.1
31102.9
5322.25
13737.4
43757.8
56187.7
62535.4
67297.3
68147.5
68560.1
78050.2
77269.9
74231.8
70676.1
64082.1
52622.5
30458.2
2256.17
2282.21
42150.3
53636.9
62041.7
64252.2
67990.9
68433.2
78048.6
77249.1
74033.1
70445.1
63208.9
51344.2
28355
2236.69
2235.25
35346.1
50994.2
58873.3
63823
67829.7
68298.8
78108.1
77302.1
74039.5
69823.7
62785.8
50297.4
25634.6
2293.5
2207.41
30371.8
48424.3
56779.7
63602.1
67763.3
68253.6
78225.8
77431
74158.7
69915.8
62807.3
50019.5
24471.4
2296.79
2251.77
30276.1
47995.9
56571.9
63596.5
67816.6
68305.2
78407.9
77644.3
74396.3
70902
63392
51080.5
25964.5
2346.02
2838.74
34287.5
49498.2
58417.6
63839.6
67997.7
68462.9
78599
77840.4
76274.4
71434.7
64756
53027
29091
2318.81
11105.6
39035.5
51796.3
61777.2
67321.8
68222
68658.9
78821.5
78121.8
76640
74437.4
67055.4
57583
31600.5
3008.28
14352.8
46084.3
59163
66591.1
67718.1
68519.7
68907.2
79047.8
78415.3
77125.4
75130.6
73165.9
60469.5
40162.3
20661.2
36235.2
55363.1
65968.1
67257.9
68193.4
68819.9
69149.4
79228.7
78655.9
77456.1
76440.2
73291.7
78217.8
92230.6
62536
72390.4
69405.5
66740.2
67994.6
68557.8
69042.8
69334.1
79332.5
78799.3
77680.9
77038
74294.9
81712.7
102451
89137
78360.2
71442.7
67584.3
68373.7
68795.7
69184.4
69443.3
83484.9
83606.4
83746.7
85741.2
87416.9
95285.1
120811
105878
112071
90689.7
81748.2
78962.5
76887.6
76031
75741.5
83473.6
83582.4
83769.4
85746.6
87901.2
96089.3
128823
120952
105154
88692
80870
78482.8
76661.6
75928.4
75664
83437.3
83486.2
83758.2
84621.5
87782.3
89131.6
113073
133334
104688
83853.5
79430.2
77419.5
76248.6
75712.1
75510.5
83381.3
83384.2
83481.1
84188.7
82302.8
86538.2
103182
119929
88985.3
80458.9
76364.7
76793.3
75914
75509
75342.8
83338.6
83292.3
83251.8
81120
81112.4
79622
81795.2
74877.4
63891.4
77407.5
74878.3
74380.9
75617
75325.7
75182.8
83350.8
83219.1
81285.6
80592.8
78159.2
74985.6
67083.1
2251.25
140315
93832.3
74722.8
73945.4
73413.3
75128.6
75068.6
83351.1
83194.6
81142.5
80318.6
76470.8
73067.1
63843.7
2651.15
38360.8
75652.5
71773.4
71834.8
73123.2
74985.3
74956.2
83417.3
83257.9
81163.5
78991.2
76141.9
71774.2
58774.6
2316.88
11418.4
60830
68285.7
70096.3
72915.5
74950.8
74932.6
83537.5
83388
81296.3
79114.8
76232
71560.7
55810
5779.56
16440.5
59921
67590.9
69851.5
72938.6
75006.4
74981.3
83727.2
83621.3
81547.9
80854.2
76887.5
73472.6
62160.7
2620.01
36063.6
64095.2
68872.7
71384.8
73195
75194.2
75137.2
83922.4
83928
84021.4
81553.2
79205.7
76502.6
73959.3
17336.7
50612.1
69095.2
70874.3
73917
75813
75476.1
75328.9
84156.8
84242.1
84521.4
85534.8
83419.3
86551.2
87421
78629.1
72404.2
77311.2
76815.9
77344.2
76269.6
75772.2
75568.6
84385.1
84550.4
85079.9
86440.9
90606.8
91900.8
123304
157556
112348
85773.3
80874.2
78221.9
76735
76057.4
75797.7
84559.7
84818.2
85335
87950.3
91366.4
101068
139198
143161
110225
90170
81951.3
79105.3
77081.2
76275.8
75972.3
84655.2
84958.4
85498.9
88354.8
91594.4
100753
130251
130814
110831
91445.5
82589.8
79479.1
77296.5
76405.8
76073.7
88635.6
89284.7
90265.3
93476.4
97349.2
100220
116937
116832
111186
96190.9
90811.1
87122.7
83993.8
82578.6
81918.7
88659.6
89306.2
90391.4
93694
98065
101045
117737
114405
107582
96505.1
90489.7
86813.1
83863
82496.7
81857.2
88670.3
89241.6
90586.4
93133.7
98042.4
101838
111787
124282
107795
97471.3
90050.7
86190.3
83634.9
82317.7
81728.9
88654.7
89203
90451
93183.3
94661.8
102944
116770
137016
112616
96715.9
89033.8
85728.3
83417.8
82155.6
81596.7
88621.7
89108.8
90203.5
90643.6
94261.9
100183
115392
144983
102398
92212
87840.6
84351.1
83052.2
81962.6
81443.8
88620
88957.2
88651
90155.5
92093.2
97816
115146
146593
20131.3
81261
87663.1
84171.4
81838.2
81716.6
81328.6
88631.4
88931.3
88619.6
89894.7
90864.2
97008.5
113619
151335
97440.7
95278
87924.8
83459.2
81708.3
81595.5
81238.4
88700.8
88994.5
88650.6
88949.5
90634.5
96428.3
111802
172389
135731
98335.7
87623.2
82968.8
81564.5
81578.1
81232.1
88803.9
89109.4
88784.4
89052
90777.5
96681.5
113535
190926
134494
98982.2
87704.6
82982.7
81634.7
81647.7
81281.6
88973
89329.5
88996.2
90394.7
91313.9
97697.4
115552
181993
134017
100265
88350.3
83628.7
81893.9
81829
81427.8
89170.2
89709.2
90961.8
91207.3
93077.2
99097.7
116764
159448
133677
101783
89268.7
84865.4
83433.4
82180.9
81623.6
89374.5
90000.3
91425.6
94500
96182.5
105806
122284
165005
129897
102180
90890.8
86590.5
83875.4
82457.5
81838.4
89535.9
90205.5
91766.6
94708.2
100312
106589
119246
138356
115238
101808
91641.1
87082.6
84162.7
82676.7
82017
89631.7
90385.6
91690.9
95312.5
100390
103933
118987
119074
109441
98602.4
91922.4
87488
84316.6
82832.5
82143
89671.8
90439.3
91629.8
95108.7
99315.6
102041
112770
113269
109674
97950.7
91792.1
87588.4
84400.9
82908.5
82210.6
92721.8
93466.6
94413.1
96748.9
100338
100443
107446
112894
104969
97496
94914.8
91727.6
89001
87725.8
86989.2
92795.2
93549.9
94611.3
97068.1
100804
100658
106948