/*--------------------------------*- C++ -*----------------------------------*\
| =========                 |                                                 |
| \\      /  F ield         | OpenFOAM: The Open Source CFD Toolbox           |
|  \\    /   O peration     | Version:  v2012                                 |
|   \\  /    A nd           | Website:  www.openfoam.com                      |
|    \\/     M anipulation  |                                                 |
\*---------------------------------------------------------------------------*/
FoamFile
{
    version     2.0;
    format      ascii;
    class       volScalarField;
    location    "0.006";
    object      p;
}
// * * * * * * * * * * * * * * * * * * * * * * * * * * * * * * * * * * * * * //

dimensions      [1 -1 -2 0 0 0 0];


internalField   nonuniform List<scalar> 
449343
(
92080.7
92256.1
92561
92900.7
93129.9
93086.3
92504.9
91319.7
89566.7
87437.8
85216.7
83178.5
81522.2
80367.4
79777
92063.9
92239.4
92544.6
92884.1
93112.8
93067.4
92485.1
91299.8
89547.9
87420.7
85200.7
83162.3
81505.1
80349.5
79758.6
92049.6
92225.5
92531
92870.3
93097.6
93048.6
92463.9
91278.3
89529
87405.3
85188
83149.6
81490.8
80333.5
79741.5
92037.4
92213.8
92519.8
92858.3
93083.2
93027.7
92440.3
91253.3
89507.3
87389.5
85177.7
83140.1
81479
80319.1
79725.8
92026.3
92203.4
92509.9
92847.5
93069
93005.6
92414
91226.1
89484.5
87374.3
85169.6
83133.2
81469.4
80306.4
79711.3
92015.3
92193
92500.1
92836.6
93055.4
92985.7
92389.9
91202.2
89464.9
87362.4
85163.4
83128.2
81461.2
80294.8
79697.8
92002.8
92181.1
92488.7
92824.9
93041.1
92968.4
92370.5
91181.7
89449
87352.8
85156.1
83122.9
81452.6
80283.2
79684.7
91988
92166.5
92474.4
92810.7
93026.1
92952.7
92350.6
91160
89427.4
87338.5
85144.9
83112.1
81440.6
80270.1
79671.1
91970.2
92148.6
92456.5
92793.1
93009.7
92937.6
92339.9
91151.7
89419.4
87324.6
85128.3
83095.2
81424.7
80255.1
79656.6
91949.6
92127.6
92435.3
92772.8
92992.8
92924.3
92330
91143.5
89407.2
87305.2
85106.7
83071.7
81404.6
80238.2
79641.1
91927.2
92104.7
92412.1
92751
92974
92912.9
92323.2
91137.3
89397.3
87288.1
85083.8
83047.5
81383.6
80220.4
79625.1
91904
92081
92388.1
92728.3
92955.2
92902.2
92317.3
91132.7
89388.7
87272.4
85061.2
83023.8
81362.4
80202.3
79608.7
91881
92057.5
92364.4
92705.5
92935.1
92889.2
92307.5
91124.7
89377.7
87255.8
85039.2
83000.9
81341.8
80184.1
79591.9
91858.7
92035
92341.6
92683.3
92914.5
92872.8
92293.7
91111.4
89362.1
87236.5
85017.4
82979.1
81321.7
80165.6
79574.4
91837.7
92013.8
92320.3
92662.2
92894.1
92854.3
92276.4
91094.4
89344
87216.8
84996.6
82958.5
81301.9
80146.7
79555.9
91885
92108.9
92514.9
93012.7
93439.2
93614.7
93185.6
91960.4
89974.9
87517.2
84997.5
82752.6
80976
79759.5
79143.7
91868.2
92092.5
92499
92997.1
93423.2
93596.4
93165.4
91940.2
89956.3
87501.4
84982.9
82736.9
80958.8
79741.1
79124.7
91854.1
92079.1
92486.8
92985.5
93410.4
93579.1
93143.7
91918.8
89939.1
87489.9
84974.1
82726
80944.4
79724.2
79106.5
91842.2
92068.3
92477.7
92976.8
93398.7
93558
93115.1
91886.2
89914.9
87477.6
84969.8
82719.6
80932.7
79708.7
79089.3
91831.6
92059.2
92470.8
92970
93387.9
93530.3
93080.5
91851.1
89875.7
87464.9
84970.1
82717.6
80923.8
79694.8
79073.2
91821.1
92050.3
92464.3
92964.4
93378.6
93511.9
93052.3
91823.3
89858.7
87454.7
84973
82719.1
80917
79682.3
79058.3
91809.4
92039.8
92456
92956.5
93365.1
93500.3
93034
91802.7
89844.4
87453.8
84987.1
82722.6
80910.1
79670.6
79044.3
91794.7
92025.7
92442.5
92944.3
93352.4
93485
93013
91730.4
89814.6
87437.3
84978.5
82713.4
80898.2
79657.8
79030.6
91776.8
92007.4
92423.9
92924.9
93333.6
93469.7
93003.7
91772.9
89815.3
87426.5
84960.3
82695.7
80882.7
79643
79016.7
91755.8
91985.3
92399.9
92901
93316.8
93451.1
92993.2
91765.8
89802.3
87398.5
84917.2
82663.8
80861.6
79626.6
79002.4
91732.9
91961
92373.5
92874.1
93293.6
93438.7
92991.1
91764.1
89791.2
87381.1
84886.6
82633.9
80839.6
79610.2
78988.3
91709.3
91936
92346.7
92847.6
93271.7
93433.7
92993.8
91767.9
89798.6
87363.1
84856.1
82605.8
80818.3
79593.7
78974
91686
91911.7
92320.9
92821.7
93249.3
93421.5
92989.4
91767.9
89791
87343.7
84828.5
82580.2
80797.9
79577
78959
91663.7
91888.8
92296.9
92797.4
93226.3
93403.8
92976.4
91754.9
89774
87320.8
84803
82556.9
80778.1
79559.7
78942.8
91642.7
91867.4
92275.1
92775.4
93204.9
93384.7
92959.4
91738.2
89755.7
87300
84781.1
82535.9
80758.6
79541.4
78925
91393.4
91728.1
92366.3
93235.4
94162
94894.7
94922.4
93596.3
90986.6
87664.6
84409.5
81690.8
79649.4
78299
77628.7
91376.6
91712
92351.6
93222
94148.8
94879
94902.3
93576.6
90970
87652.7
84397.7
81675.9
79631.4
78279.3
77608.3
91362.5
91699.5
92342.2
93216
94142.9
94867.3
94876.3
93555.2
90954.6
87652.2
84398.6
81667.9
79615.9
78259.8
77587.4
91350.7
91690.3
92337.9
93216.6
94143.4
94849.8
94832.7
93524
90914
87651.4
84414.8
81669.4
79603.5
78241.1
77566.4
91340.8
91683.8
92338.1
93222
94140.2
94811.6
94732
93408.1
90827.3
87659
84435.3
81676.5
79594.8
78223.7
77545.9
91331.3
91678.4
92340.3
93227.5
94145
94783
94689.6
93377.9
90811.2
87664.5
84477.8
81692.5
79588.8
78208.4
77527
91320.2
91670.2
92336.7
93235.6
94136.2
94781.8
94663.4
93349.3
90794.5
87667.5
84582.9
81713.3
79586.7
78195.2
77510.2
91306.3
91657.9
92325.9
93228.2
94132.4
94785.6
94680.3
93263.2
90768.2
87652.3
84575.6
81706.1
79576.4
78183.1
77496.3
91287.8
91637.8
92304.7
93204.5
94105.2
94751.9
94634.6
93322.5
90768.1
87641.4
84557.3
81687.4
79560.3
78168.5
77483.5
91266.5
91614.1
92276.8
93165.2
94084.7
94723.7
94632.1
93322.5
90758.2
87611.8
84425.9
81640.3
79535.9
78154.9
77473.2
91243
91586.5
92241.9
93127.5
94047.8
94722
94645.6
93325.2
90747.4
87580.2
84356.7
81597.2
79514.3
78142.2
77464
91219
91559.2
92208.4
93089.3
94019.1
94728.2
94715.7
93411
90804.6
87543.5
84307.6
81561.2
79494
78130.5
77455
91195.7
91533.6
92178.1
93054.5
93984.8
94713.6
94727.2
93411.1
90814
87513.8
84260.5
81528.8
79475.2
78117.8
77444.5
91173.5
91509.8
92151.4
93024.8
93955.3
94690.2
94718.9
93398.4
90795.9
87480.9
84226.3
81503.3
79457.1
78103.4
77431.5
91152.6
91488.2
92128.6
93000.8
93931.3
94668.9
94702.3
93381.6
90776.3
87456.7
84201.9
81482
79438.8
78086.6
77415.4
90472.2
90968.5
91955.8
93413.3
95225.4
97064.9
98296.8
96799.9
92795.9
87663.7
83147.3
79747.6
77372.6
75870.5
75145.1
90454.6
90952.2
91942
93402.9
95217.3
97054.3
98272.3
96781.3
92780.5
87657.3
83138.7
79731.5
77351.9
75847.9
75122
90439.3
90939.6
91935.5
93405.9
95226.4
97056
98250.4
96771.7
92788.6
87685
83150.5
79721.9
77330.9
75823.1
75095.9
90426.1
90930.9
91937.7
93425.6
95251.2
97072.7
98089.7
96767.1
92722.2
87786.6
83213.7
79726.5
77311.5
75796.5
75067.3
90414.9
90926.1
91947.6
93453.8
95295.1
97021.9
97196.6
96313.5
93310
87872.8
83280.9
79744.3
77293.7
75768.7
75037.5
90404.8
90924
91968.4
93514.3
95344
96182.2
97085.5
96268.4
93322.9
89014.3
83424.1
79779
77284.1
75743.3
75009.4
90393.1
90919.5
91977.1
93544.5
94691
96213.1
97042.8
96213.7
93278
89023.1
84624.4
79797
77272
75721.6
74985.1
90378.8
90909.6
91973.3
93542.9
94672.3
96224.8
97060.1
96103.8
93254.6
89018.6
84587.8
79789.9
77273.6
75712.9
74969.2
90360.9
90887.4
91945.4
93514
94651
96195.7
97017.7
96165.8
93250
89001.9
84582.6
79771.9
77245.3
75696.4
74960
90341.1
90860.8
91906.3
93453.7
95284.7
96131.2
97007
96184.9
93244.6
88984.7
83379.4
79731.7
77235.6
75693
74958.5
90318.3
90830.2
91853.1
93361.4
95205.9
96936.5
97098.5
96221.1
93252.6
87801.8
83210.3
79671.8
77218.9
75692.3
74960.1
90296
90801.7
91810.4
93301.2
95130.4
96955.9
97981.1
96664.3
92625.6
87691.7
83117.6
79627.6
77209.6
75692.1
74961.7
90274.5
90775.9
91773.9
93247.6
95072.6
96908
98109.2
96638.3
92660.4
87560.1
83025.1
79593.6
77199.1
75688.5
74959.8
90253.7
90752.4
91744.7
93209.3
95028.6
96871.8
98098.1
96615.4
92620.7
87501.2
82981.6
79571.2
77187.6
75680.5
74952.9
90233.6
90731.2
91721
93182.4
94999.7
96845.8
98086.2
96598.1
92600.8
87472.2
82954.8
79551.7
77172.6
75667
74939.9
88919.5
89592.8
90983
93178.3
96264.4
100213
104303
102249
95580.8
86860.4
80534.6
76514.9
73932.8
72381.7
71659.7
88899.6
89574.3
90967.9
93169.5
96262.3
100211
104284
102235
95585.3
86870.8
80528.1
76493
73905.7
72354.2
71632.5
88879.8
89558
90959.7
93178.6
96298.6
100249
104287
102228
95617.7
86900.9
80532.1
76465.1
73870.2
72319.2
71597.9
88860.4
89544.6
90963
93234.6
96446.6
100375
101955
102265
97036.7
87382.2
80693.5
76466.5
73830.8
72277.6
71556.8
88841.2
89532.9
90978.9
93298.5
96570.8
98840.4
101939
102161
97083.5
89441.5
80801.5
76449.5
73782.3
72225.8
71509.9
88824.8
89532.4
91025.2
93496.3
95685.2
99001
101955
102012
97008.5
89591.8
82902.3
76501.1
73731
72183.5
71465.3
88805.1
89514.2
91012.2
92899.9
95724
99089.4
100970
101238
97203.9
90501.5
83074.1
78297.8
73642.3
72123.7
71422.2
88792.2
89507.9
91065.1
92881.1
95748.4
99102.7
100982
101202
97213.1
90532
83142
78342.3
73745.7
72105.9
71408.5
88772.6
89482.1
90980.3
92853.1
95722.9
99081.2
100948
101198
97177.9
90518.4
83115.6
78321.6
73617.5
72101.4
71399
88762.8
89471
90965.1
93438.1
95625.8
98975.8
100961
101203
97167.6
89588.8
82931.1
76460.3
73688.4
72136.3
71417.7
88746
89438.5
90886.3
93208.7
96484.7
98796.5
101842
101957
96932.4
89485.3
80743.2
76386.6
73714.4
72155.6
71437.9
88732.4
89417.9
90838.6
93113.8
96330.6
100265
101815
102136
97023
87307.7
80613.9
76380.6
73739.1
72181.1
71458.2
88717.4
89396.9
90801.3
93024.2
96149.6
100107
104155
102110
95509
86798.5
80426
76352.2
73750.3
72194.2
71470.3
88701.2
89377.4
90774
92980.4
96079.4
100036
104120
102083
95448.4
86741.1
80393.6
76350.2
73754.8
72197.5
71472.7
88683.6
89358.4
90751.8
92952.1
96044.8
100002
104104
102062
95408.9
86696
80365.5
76337.4
73746.8
72189.5
71464.4
86478.4
87281.2
89000.9
91903
96443.3
103613
109649
116011
103641
83169.4
75407.6
71450.7
69053
67726.4
67143.9
86453.8
87257.6
88980
91890.1
96447.2
103618
109637
115987
103617
83159
75384.3
71412.3
69015.4
67692.6
67111.9
86424.3
87230.2
88958
91875.5
96464.8
103667
109634
115945
103550
83062.1
75299.9
71323.6
68951.6
67642.1
67066.7
86390.9
87203.9
88948
91920.9
96826.4
101522
109778
115985
103389
87206.6
75360.9
71176.7
68868
67579
67009.5
86350.9
87162.1
88914.3
91980.9
95620.9
101781
110026
113386
104470
87869.7
78503
71028.8
68701.8
67481.7
66938.4
86318.4
87125.6
88960.4
91595.9
95749.7
100874
108182
112278
104442
89992.4
78589.6
73371
68550.5
67371.8
66866.1
86281
87077.7
88943.8
91633
95890.6
100877
107245
112179
104787
90858.9
80226.8
73380.6
68418.6
67273.8
66801.9
86253.1
87033.4
88973.6
91684.9
95257.7
100389
107247
112133
104730
90837
80192.6
73374
70373.1
67197.9
66772
86249.5
87046.8
88915.4
91640.9
95237.4
100845
107235
112122
104724
90834.3
80189
73331.2
68401.6
67252.9
66779.7
86257.9
87065.7
88901.3
91526.7
95809
100843
107186
112153
104768
90855.9
80240.8
73370.6
68510.8
67329.9
66822.7
86256.9
87069.4
88823.7
91894.2
95540.9
101800
108027
113202
104405
89864.6
78562.6
70979.7
68643.7
67418.1
66872.2
86265.5
87079.9
88827.2
91803.7
96715
101458
109708
115887
103281
87271
75304.3
71106.9
68787.2
67491.3
66918.3
86264.3
87071.8
88802.7
91725.3
96321
103531
109523
115810
103414
82998.5
75222.3
71231
68846.1
67527.8
66948
86258.3
87063.9
88789.9
91705.7
96270.7
103451
109479
115840
103509
83077.9
75283.8
71292.9
68880.5
67547.8
66962.1
86245.5
87050.1
88773.5
91681.6
96230.3
103410
109461
115843
103501
83054.2
75273.4
71297
68883.8
67546.8
66959
82914.1
83703.4
85441.2
88531.9
93630.8
100599
117120
147895
109865
76873.4
65743.5
63744.6
62491.7
61913.3
61680
82883
83672
85408.7
88498.6
93606.2
100580
117085
147865
109849
76818.9
65675.5
63675.7
62443.9
61875.1
61645.2
82837.6
83621.2
85351.1
88418.1
93492.9
100554
116993
147794
109742
76714.2
65495.8
63535
62354.9
61810.2
61592.7
82780.4
83559.4
85280.6
88199.8
92928.6
100942
116991
147580
109309
76620.3
68910.4
63134
62215.3
61717.9
61523.1
82700.6
83455.4
85080.5
88288.4
92948.3
100076
114171
147446
109905
80189.1
68494.6
65379.2
61905.1
61584.4
61432.1
82619.2
83296.2
85590.7
88343.8
92709.2
100036
112759
142378
114166
81970.3
70598.4
65125.4
63652.7
61397.4
61337.2
82570.6
83241.7
85581
88334.6
92726.7
99627.8
112643
142242
114053
81890.8
71739.9
66655.1
63549
61329.6
61278.2
82517.4
83190.9
85628.4
88350.1
92712.8
99591.4
112587
142185
114047
81874.8
71695.5
66607.3
63528.8
61312.3
61222.3
82538.3
83209.5
85565
88352.6
92719.8
99580.3
112575
142174
114028
81866.1
71696.1
66616.2
63486.6
61310.6
61257.1
82559.9
83238.4
85550.4
88265.6
92699.7
99589.6
112613
142216
114036
81881.8
71727.9
66655.7
63571.6
61359.3
61297
82608.6
83364.2
84992
88205.6
92872.3
100019
112714
142343
114166
81976.4
70730.5
65209.3
61856.3
61526.7
61370.6
82656.7
83437.9
85163.8
88086.5
92712.5
100747
114155
147368
109299
80465
68748.4
63080.1
62145.9
61638.2
61438.3
82680.2
83465.5
85198.9
88272.2
93354.9
100440
116867
147567
109498
76644.6
65454.2
63464
62263.2
61705.4
61481.7
82690.3
83481.5
85222.6
88318.9
93435.5
100429
116913
147704
109774
76807.9
65619.2
63582.5
62325.3
61741.3
61504.2
82684.1
83475.6
85217.8
88315.3
93423.9
100399
116934
147736
109807
76810.8
65652.3
63618.3
62339.7
61745.4
61504.4
78139.8
78672.6
79825.3
81844.1
84962.4
91683.4
98768.7
94771.1
25185.2
48651.5
51653.8
53460
54585.1
55301.3
55617.5
78103.6
78634.3
79783.4
81792.3
84918.6
91635.2
98727.5
94667.6
25474.9
48579.6
51546.8
53392.9
54545.5
55267.5
55586.8
78045.8
78565.6
79706.9
81726.4
84806.3
91532.3
98631
94586.9
25225.5
48478.1
51390.4
53324.9
54484.1
55214.8
55543.5
77965.8
78458.4
79581.8
81448.6
86101.4
91143.9
98381.1
94457.8
24395.3
48405
52974.9
53309
54406.8
55140.5
55490.6
77853
78309.7
79343.8
82606.7
85862.5
91589.7
99233.4
94308.5
23690.3
51551
54446.3
54755.5
54343.1
55072.1
55426.1
77720
78152.2
80550
82490.2
86342.1
91835.9
99023.6
94044
23782.4
51731.9
55310
54762.7
55649.8
55051
55364.6
77666
78085.1
80533
82407
86588.2
91756
98899.9
93900.1
23365.9
51759.7
55368.3
55755.5
55567.9
55057.6
55348
77628.1
78037.1
80488
83044.2
86573.2
91711.2
98836.4
93771
23885.8
51809.2
55386.5
56323.6
55578.6
55066.8
55319.9
77636.8
78056.1
80474.6
83021.3
86561
91700.5
98826.2
93779.8
23634.3
51790.8
55381.7
56316.9
55534.3
55039.2
55328.1
77660.8
78093.6
80500.2
82375.2
86546.5
91724.7
98871.4
93870
23491.9
51761.6
55360.9
55744.8
55556.3
55013.7
55325.5
77762.9
78221.6
79260.3
82470.3
86294.5
91781.4
98978.3
93996.8
23716
51771.9
55295.7
54650.3
54297.8
55017.1
55366.8
77844.6
78338.9
79465.9
81341.4
85910.3
90753.7
98053.7
94276.3
24576.6
50112.9
52805.9
53266.2
54344.7
55065.2
55409.3
77890.7
78412.8
79558.6
81582.8
84672.4
91205.1
98353.7
94363.9
24072.8
48430
51387.4
53272.8
54402.4
55116.1
55437
77913.3
78446.6
79601
81618.2
84754.2
91444.1
98521.8
94468.3
25643.3
48682
51545.1
53323.5
54439.2
55141
55451
77912.3
78447.9
79606
81632.6
84761.8
91480.3
98569.9
94523.9
25672.1
48719
51617.6
53358.4
54446.1
55141.1
55447.6
72383.5
72436.5
72517.6
72630.1
73030.3
77418.6
81097
93749.7
2322.69
27820
37907
43306.2
46775.9
48781
49669.8
72348.5
72399.4
72480.5
72593.2
73015
77374.7
81054.3
93533.9
2412.78
27698.5
37832.8
43284.6
46760.1
48761
49650.2
72296.1
72340.4
72419.7
72570.2
72991.4
77278.2
80962.5
93455.2
2368.41
27691.4
37820.9
43305.8
46755.4
48748.8
49634.1
72227.6
72248
72343.5
72652
75698.3
77222
80759.9
93320.4
2634.4
27973.4
38486.6
43547.6
46799.3
48755
49631.1
72136.4
72134
72290.1
74624.3
75755.2
78978.6
81786.9
93291.7
2451.8
28157.8
39274
44578.3
46963.9
48806.7
49643.3
72031.5
72091.7
73939.3
74564.5
76987.6
79744.5
81660.5
92964.7
2831.78
28426.8
39675.5
44650.1
47838.1
48927.4
49665.2
71993.8
72051.1
73890.6
74524.1
77618.9
79647.5
81568.2
92882.5
3555.82
28519.7
39742.8
45117
47844.6
48967.1
49684.2
71964.2
72014.3
73834.8
75560.6
77565.5
79597.2
81520.2
92783.2
3341.08
28535.3
39768.7
45374
47866.2
48982
49672.2
71965.5
72023.3
73822.5
75535.1
77556.1
79588.5
81511.8
92807.2
2546.8
28534.6
39764
45368.2
47846
48948.7
49664.2
71972.7
72033.8
73841.5
74510.1
77574
79622.4
81543.8
92852.2
2730.15
28514.6
39730.5
45113
47807
48889
49624.6
72048
72047.6
72207.5
74504.8
76965.6
79711.7
81617.8
92912.9
2286.55
28427.6
39641.4
44551.8
46918.2
48750.6
49583
72107.9
72131.1
72232.9
72549.3
75666.3
77260.4
80867.6
93232.2
2305.13
28136.2
38635.6
43509.1
46737.4
48678.9
49548.8
72142.7
72190.1
72275.7
72435.1
72867
77124.1
80740.3
93227.3
2661.77
27893.5
37820.3
43255.7
46674.2
48649.6
49526.6
72160
72214.1
72301.5
72423.4
72858.6
77186
80856.1
93331.2
10342.7
27884.7
37841.1
43219.6
46655.6
48634.5
49513.7
72157.7
72214
72302
72424.5
72838.7
77225.8
80904.1
93378.5
4180.84
27892.2
37881.6
43208.9
46638.8
48620.9
49499.2
66278.1
65800.4
64817.4
63316.2
63554.1
63488.4
66584.3
2305.2
19930.2
29923.5
36316.3
40797.3
43506.7
44768
66249.5
65771.2
64791.3
63297.1
63530
63457.7
66552.5
2304.37
20026.9
29936.1
36336.4
40797.4
43497.7
44756.9
66214.7
65737.1
64749.2
63252.4
63583.3
63446.9
66487.4
2311.24
19900.8
30003.8
36366.4
40813.9
43509.5
44758.4
66184.9
65704.2
64719.3
63389.6
64003.6
63396.4
66320.2
2301.46
19924.9
29792.8
36601.9
40886.7
43559.2
44783.7
66158.4
65677
64842
65506.5
64525.5
65350.3
66893.9
2300.86
18262
29668.3
36828.2
40999.1
43645.9
44834.1
66127
65773.1
66502.1
65710.9
65899.2
66264.4
66819.9
2291.26
18301
29610.2
36881.2
41380.7
43712.7
44899
66119.9
65783.1
66419.9
65773.3
66665.5
66276.1
66789.7
2293.28
18318.9
29649
36963.9
41413.9
43731.8
44913.1
66096.9
65764.8
66383.5
66704.8
66718.4
66270.4
66776.7
2296.96
18313.6
29657.7
37019.8
41379.9
43740.9
44899.4
66091.3
65755.9
66364.7
66699.9
66709.7
66262.6
66772.3
2298.51
18313.9
29652.3
37011.3
41372
43711.7
44891.6
66068.4
65715.6
66375.5
65747.6
66632.8
66251.8
66775.6
2294.73
18305.1
29629.3
36942.7
41381.3
43671
44854.4
66070.3
65591.4
64757.6
65428.7
65814.8
66217.7
66788.3
2298.25
18252.3
29577.5
36801.8
40944.1
43583.3
44768.9
66065.4
65588.4
64613.2
63294.4
64055.1
63440.3
66036.1
2298.45
18771.2
29866.5
36545.1
40814.3
43475.7
44695
66061.3
65587.5
64606.8
63120
63535.2
63321.1
66305.3
2305.12
19781.8
29967.3
36297.2
40721.2
43401.8
44643.5
66060.7
65586.4
64614.4
63130.9
63448.9
63329.4
66395.7
2306.84
20183.8
29905
36253.4
40681.6
43362.5
44612.7
66052
65578.6
64604.2
63115.8
63356.8
63317.4
66423.6
2300.21
20179.4
29882.8
36206.6
40650.5
43338.1
44589.5
60650.7
59665.1
57623.1
54206.2
52793.8
47432.8
44870.9
2627.71
2296.91
16988.6
26278.6
32751.3
37359
40241
41634
60624.8
59638.5
57597.1
54183.5
52764.3
47399.8
44854.7
2649.34
2291.03
17308.9
26304.5
32776
37355.6
40229.7
41619.9
60595.6
59611.3
57554.5
54096.2
52729.1
47348.1
44817.6
3002.77
2287.88
14838
26399.1
32776.7
37352.2
40227.5
41610.7
60581.9
59602.6
57495.7
54124.3
52736.4
47287.6
44786.5
2299.18
2300.42
15270.4
25108
32822.8
37369.6
40249.8
41615.5
60592.3
59607.7
57559.9
56801.8
52880.6
49857.8
46521.2
2312.06
2291.41
13963.9
24406
32142.3
37372
40289.5
41631.6
60603.7
59711.1
59391.8
56886.3
54595.8
51056.9
46632.3
2287.45
2295.16
13918.3
24064.7
32144.3
37085.1
40270.6
41670.5
60605.5
59715.7
59376.1
56864.4
55393.8
51085.3
46665.2
2666.65
2333.87
13910.7
24065.2
31782.7
37107.4
40245.2
41656.5
60585.1
59708.4
59352.9
58025.4
55439.5
51099.2
46709.7
2584.97
2290.35
13891.8
24058.8
31617
37091.4
40240.1
41638.3
60576.8
59689.6
59340.8
58032
55432.6
51096.1
46711.5
2518.6
2284.36
13893.1
24052.8
31608.4
37081.4
40221.4
41632.7
60544.6
59653.8
59344.6
56851.3
55392.4
51075.2
46686.8
2904.4
2254.21
13899.9
24042.2
31764.4
37076.7
40222.1
41619.8
60502.8
59522.7
57482.5
56752
54541.6
51020.6
46632.7
2307.6
2290.71
13872
24032.5
32078
37305.2
40216.7
41558.3
60460.4
59485.4
57389.7
54035.3
52631.8
47305.6
44823.7
2665.83
2368.68
14476.6
25051
32745.5
37281
40153.8
41515.4
60439.3
59459.5
57412.3
53970.6
52583
47233.7
44730.4
2302.58
2295.72
14935.2
26318.5
32678.6
37240
40104.6
41482.7
60432.8
59451.6
57421.3
54028
52627.1
47277.2
44756.5
3232.15
2290.07
17260.7
26217.2
32658.9
37218.8
40078.1
41461.4
60421.2
59441
57410.5
54015.6
52617
47299.9
44777.9
2978.1
2289.95
17039.1
26186.7
32613.3
37192
40055.7
41440.8
56259.9
54802.1
51746.2
46494.5
37990.3
31303.6
12664.3
2268.1
2299.57
17000
25344.5
31638
36223.6
39105.6
40514.3
56227.4
54767.6
51706.1
46458.6
37942.3
31246.3
12589.5
2254.35
2299.14
17241
25258.6
31636.3
36197.6
39080.1
40487.4
56183.9
54723.8
51650.3
46355.2
37788.4
30987.6
12509.4
2260.76
2298.68
15157.9
25207.4
31602.8
36158.5
39044.5
40450.2
56147.7
54701.2
51558.3
46362.2
42283.8
30874.4
12427
2293.4
2298.83
14067.3
23103.2
31501.4
36101.1
39008.9
40411.8
56138.1
54688.4
51530.4
49263.3
42385.5
34522
18421.3
2296.81
2337.31
12204.1
22043
30012.9
36011.1
38991.1
40369.6
56140.3
54670.8
53561.8
49238.3
44529.4
36239.4
19390.9
2311.09
2284.96
12099.5
21496.5
29915.2
35029.9
38919.7
40362.2
56119
54636.3
53561.9
49144.7
45450.8
36231.7
19304.1
2301.8
2305.25
12072
21457.2
29206
34990.4
38865
40321.4
56092.7
54623.8
53543.6
50601.8
45394.9
36220.4
19365.6
2310.62
2300.29
12035.8
21432.3
28864.1
34966.5
38845.5
40299.7
56089.3
54609.4
53535.7
50602.8
45390.9
36227.2
19350.2
2307.71
2296.59
12040.8
21425.5
28855.3
34964.5
38837
40294.2
56078.7
54613
53552.9
49143.6
45444.6
36247.8
19389
2320.7
2291.85
12061.6
21432
29194.4
34979.2
38864.1
40304.5
56044.5
54599.2
51452.1
49306
44491.5
36231.8
19460.9
2302.07
2291.19
12061.3
21464
29882
35931.3
38906.6
40285.3
56020.2
54578.2
51445.8
46267.8
42296.7
31127.2
13890.9
2296.43
2281.5
12872.6
23005
31402.3
35993.9
38897
40296.6
56020.2
54565.5
51504
46230.7
37696.5
30935
12436.1
2282.22
2301.21
14818.3
25078.8
31473.4
36021.7
38901.3
40304.6
56027.3
54573.3
51524.4
46297.6
37823.5
31086.9
12536
2250.67
2298.81
17111.9
25066.3
31471.5
36031.3
38905.3
40309.3
56021.8
54570.1
51527.5
46300.1
37840.8
31196.9
12635.9
2252.65
2298.84
16816.6
25126.1
31446.3
36023.3
38895.4
40300.4
53788.2
52045.7
48404.8
42326
33089.7
23136.5
2311.03
2268.45
2300.08
16602.9
26114.7
32549.5
37135.9
39974.2
41350.1
53741.2
51996.4
48341.7
42272.7
33086.5
23137.1
2308.41
2272.55
2300.03
16356.8
25976.9
32511.3
37076.8
39928.5
41306.8
53671.2
51922.1
48245.4
42144.7
32944.1
24240.6
2310.09
2285.28
2300.36
13784.5
25950.1
32444.1
36996
39857.9
41240.7
53598
51875.2
48169.5
42165.2
36252.1
24210.6
3910.26
2295.93
2298.5
13777.9
23142.6
32285.3
36877.9
39768.3
41164.1
53546.5
51841.2
48155.1
44413.6
36325.5
26676.2
12138.4
2287.37
2289.86
11893
21816.3
30124.9
36740.4
39696
41081.1
53516.7
51785
49653.1
44409.7
38031.2
27795.9
12339.9
2293.44
2307.69
11757.3
21090.5
29964.4
35147
39606.8
41029.3
53468.5
51724.1
49659.9
44355.5
38779.4
27709.4
11913.9
2292.88
2316.7
11720
21014
28923.6
35062.8
39535.3
40970.5
53436.7
51699.5
49650.1
45544.6
38704
27642.1
11679.7
2325.31
2302.31
11669.7
20968.4
28416.9
35020.7
39504
40944.6
53436.2
51693.7
49647.5
45540.8
38702.5
27658.7
11742
2307.42
2299.02
11669.8
20958.4
28406.4
35026.7
39502.5
40938.6
53449.5
51721.7
49657.5
44363.6
38771.9
27739.1
12086.1
2288.05
2302.09
11700
20981.6
28914.8
35069.2
39541.9
40963.9
53444.7
51743.6
48067.7
44458.6
37999.9
27806.7
12404.5
2284.37
2273.29
11711.3
21052.6
29961
36645.7
39598.7
40982.5
53459.2
51740.6
48044.6
42056.2
36242.3
24474.8
10758
2289.09
2293.98
12586
23035.2
32163.1
36751.1
39637.8
41032.2
53494.2
51749.9
48084.1
42003.3
32832.2
24298.6
2314.34
2289.29
2301.59
13935.8
25796.5
32290.2
36833.7
39692.8
41075.2
53526.1
51786
48141.6
42086.9
32931.2
22904
2306.78
2278.16
2299.65
16199.1
25726.8
32320.2
36879.1
39728
41106.4
53534.3
51796.7
48166.3
42104.4
32901.2
22849.1
2306.78
2254.1
2299.9
16464.7
25853
32324.3
36900.3
39736.4
41112.4
53739.5
52034.8
48475.2
42728.4
33077.4
21612.5
2295.97
2276.28
2300.66
19850.5
29222
35660.2
40109
42753.7
44021.4
53671.9
51962.9
48381.3
42604.4
33045.9
21559.6
2295.98
2269.63
2300.66
19585.7
29074.2
35566.3
40012.9
42686.7
43961.1
53565.7
51842.2
48220.7
42295.5
33821.3
22026
2333.38
2282.25
2300.83
15543
29007.5
35503.4
39892.3
42585.8
43869.4
53449.2
51734.5
48071.4
42088.8
35274.5
22431.8
3491.44
2287.96
2296.57
15350.3
25397.9
35301.3
39718.6
42455
43761.3
53351.1
51645.9
47952.4
43248.5
34855.7
24345
10150.2
2288.45
2272.76
12863.3
23648.2
32476.8
39541.9
42345.1
43650.9
53286.1
51555.2
48635.8
43065.6
35855.7
25065.1
10371.5
2286.36
2313.47
12748.3
22691.4
32246.1
37409.2
42254.4
43575.7
53214
51467.7
48586.9
42961.2
36285.9
24931
10274
2290.5
2290.9
12705.6
22565.5
30855.9
37271.8
42167
43502.5
53176.5
51429.4
48561.7
43747.6
36172.8
24821.5
10019
2334.17
2299.6
12632.3
22487.9
30169.6
37212.7
42125.7
43470.8
53177
51432.3
48568.8
43740.8
36173.4
24835.6
10078.3
2300.75
2300.62
12618.6
22470.5
30156.4
37222.6
42129.1
43465.1
53210.1
51483.3
48589.4
42996.8
36280.7
24961.6
10410.8
2277.03
2300.03
12638.4
22515.9
30845.3
37293.2
42179.4
43501.3
53236.1
51535.1
47850.8
43171.6
35852
25100.4
10595.8
2281.82
2249.58
12673.4
22637.7
32270
39429.5
42233.5
43538.7
53293.2
51581.8
47926.9
41956.8
35003.1
22931.5
9925.14
2285
2303.08
13716.5
25227.7
35155
39571.1
42306.4
43613.4
53368.7
51648.1
48033.5
42120.8
33673.3
22132.9
2626.72
2282.82
2301.6
15460.3
28836.2
35326.6
39706.4
42400.7
43684.9
53434.7
51727.7
48151.6
42381.1
32858
21368
2296.5
2277.29
2300.77
19366.6
28823.1
35360.2
39786.3
42464.1
43739.7
53462.5
51759.8
48204.9
42463.9
32848.3
21373.7
2296.24
2285.1
2300.74
19632.8
28955.1
35420.7
39845.1
42493
43761.6
56176.1
54796.6
51855.9
47173.2
38861.4
26684.6
2300.3
2302.63
2316.01
28342.8
35731.2
41556
45267.1
47375.8
48392.1
56082.5
54687.1
51702.9
46897.9
38515.6
26315.1
2300.63
2304.6
2331.9
27797.3
35471.2
41365.8
45122.4
47282.7
48312.9
55929.9
54497.6
51453.4
46282.8
39035
25758.5
6066.54
2297.16
2301.53
20591.2
35350.7
41183.9
44921.5
47146.6
48194.4
55757.4
54289.5
51136.8
45845.7
38293.7
25321.8
6640.88
2295.8
2297.74
19798.6
30627.3
40836.7
44659.9
46972.6
48055.1
55601.2
54111.4
50853.1
45709.1
37523
26124.8
9993.77
2288.15
2292.78
15817.1
28112.9
37324.8
44458.2
46827.6
47921.2
55492.1
53981.3
50671.7
45315.9
37759.3
26504.9
10842.4
2289.84
2293.96
15552.2
26711.7
36961.6
41788.1
46762.4
47836.3
55393.2
53862
50485.7
45111.2
37820.5
26308.8
10985.1
2323.42
3908.45
15580.4
26468.1
35178.2
41600.4
46669.8
47752.2
55347.5
53810.2
50425
45377.7
37646.3
26103.3
10444.8
2280.46
2317.15
15348.5
26330.7
34286.3
41529
46623.1
47715.7
55349.6
53819.9
50437.9
45374.8
37650.9
26116.9
10534.1
2292.89
2302.19
15303.4
26310.8
34272.5
41540.6
46626.8
47709.9
55404.1
53896
50502.4
45180.3
37823.7
26340.6
10830.1
2314.65
2300.12
15323
26408.7
35176.9
41635
46676.5
47752.7
55468.8
53981.4
50730.6
45448
37791.7
26578.6
10843.7
2284.04
2306.55
15441.9
26648.9
37035.7
44327.5
46702
47796.8
55579.7
54112.4
50963.5
45679.2
37787.3
25382.6
9650.53
2280.1
2301.25
16966.5
30219.8
40662
44490.3
46806.9
47892.1
55708.4
54275.4
51230.9
46060.1
38820.5
25553.4
6745.41
2295.15
2302.77
19980.9
35132.4
40974.8
44712.3
46943.6
47992.7
55819.2
54422.3
51436.9
46628
38271.1
26081.3
2300.69
2305.03
2315.88
27456.2
35215.3
41128.5
44869.9
47042.4
48073.3
55872.3
54491.4
51548.9
46862.5
38573.2
26402.7
2300.27
2303.6
2312.77
27972.8
35455.7
41287
44978
47097.5
48113.7
60662.2
59824.8
57991.8
55156.8
49447.8
42678.3
2539.98
2400.56
29065.1
44903.9
46671.5
50467.8
52431.5
53578.2
54169.2
60543.1
59670.6
57762.3
54719.2
48758.1
41821.8
2585.01
3026.09
28508.5
43910.3
46205.6
50123.4
52225.6
53454.6
54070
60347.7
59410.8
57429.3
53839.5
49200.8
36893.3
12091.5
2313.59
2322.76
32521.9
45869.4
49591.7
51908.7
53273.7
53920.6
60122.9
59113.2
56924.2
53274.5
46044.5
34635.5
13422
2302.81
2301.92
29480.6
39742.5
49022.7
51535
53053.1
53749.1
59917.8
58865.3
56575.6
51708.4
44791.7
33440.2
14742.2
2284.08
2341.43
22643.5
36299.3
44918.2
51314.9
52875.4
53595.8
59780.4
58733
55371
51058.6
43978.9
32724.4
15570.6
2297.09
4986.17
21709.4
34175
44435.2
48261.7
52835.8
53519.5
59661.6
58601.2
55083.1
50781.8
43545
32308.8
15662.2
2301.81
2289.42
21193.6
33648.8
42234.5
48029.1
52742.3
53428.2
59608.7
58541
54998.1
50432
43297
31981.7
14221.3
2299.51
2604.92
21071.3
33419.5
41139.4
47982.2
52697.6
53389.9
59609.9
58549
55008.1
50431
43312.6
32024.3
14252.9
2291.5
2312.41
21165
33420.1
41126.9
47984.4
52694.6
53382.2
59677.4
58629.1
55104.8
50872.8
43573.4
32458.8
15602.3
3775.31
2306.29
21317.3
33636.4
42241.8
48058.4
52741
53428.3
59764.8
58710.1
56417.1
51208.5
44074.6
32980
16865.7
2295.74
2300.04
21635.8
34141.1
44538
51167.7
52737.7
53461
59921.1
58906.3
56708.7
53045.1
45227.1
33799.4
14686.3
2279.21
2296.66
24418.1
39023.3
48816.1
51344.7
52872.7
53572.9
60100.5
59157.5
57163.2
53549
48867.6
35588.3
13113.4
2317.22
2324.16
30355.9
45586.2
49343.2
51678
53054.9
53704.6
60253.7
59375
57454.2
54382.4
48420.1
41248
2463.16
2755.98
26678.4
43283.3
45862.9
49828.7
51951
53198.6
53815.1
60332.5
59489.3
57643.4
54782.2
49069
42035.4
2424.87
2387.79
27770.2
44329.3
46332.9
50143.8
52121.7
53284.8
53875.5
66445.6
66325.3
66149.8
66951.1
68092.8
82571.3
126144
124812
85463.8
69364.7
61929.3
61560.6
60845.9
60752
60793.7
66313.1
66135.5
65837.5
66253.8
66692.7
79052.3
114537
110959
81946.2
67664.2
61177.9
61066.6
60600.2
60606.5
60681.3
66097.7
65817.6
65372.6
64534.1
64861.7
60814.4
65953.7
55981.9
55657.7
55340.6
59884.5
59997.3
60180.3
60380.6
60506.4
65851.2
65481.6
64708.2
63693.2
58892.4
53923.1
42906.5
8347.69
20885.6
49387.7
53890.9
59130
59711.4
60123
60310.7
65631.4
65204.9
64324.2
60711.9
57212.7
48519.1
28370
2265.97
6169.92
38115.3
49476.3
55281.6
59412.9
59924.3
60141.8
65493.7
65048.6
62287.8
60007.3
54845.4
45799.4
25420.7
2286.08
5857.04
35055
46569.6
54778.1
56576.6
59801.6
60061.8
65370
64915.3
61974.2
59727.2
53773.1
45000.1
25954.2
2640.36
2370.58
33631.5
45753.4
52329.3
56381.9
59697.8
59961.8
65314.1
64856.1
61878.7
58518.5
53494.5
44723
26685.5
2298.71
5561.79
33228.7
45395.7
51031
56345.4
59658.2
59924.1
65309.4
64851.9
61876.9
58517.7
53502.9
44838.4
27108.7
2280.44
5106.51
33198.6
45374.7
51010.4
56339.2
59647.2
59913.1
65374.8
64924.4
61971.2
59765.1
53786.1
45384.5
27429.1
2283.66
5941.18
33745.4
45724.2
52320.4
56389.2
59702.5
59965.9
65457.8
65021.4
64120.2
60060.3
54907.8
46180.9
26711.8
2299.37
6232.81
35224.5
46552.7
54848.5
59256.5
59778.1
59999.6
65627.3
65245.6