/*--------------------------------*- C++ -*----------------------------------*\
| =========                 |                                                 |
| \\      /  F ield         | OpenFOAM: The Open Source CFD Toolbox           |
|  \\    /   O peration     | Version:  v2012                                 |
|   \\  /    A nd           | Website:  www.openfoam.com                      |
|    \\/     M anipulation  |                                                 |
\*---------------------------------------------------------------------------*/
FoamFile
{
    version     2.0;
    format      ascii;
    class       volScalarField;
    location    "0.006";
    object      p_rgh;
}
// * * * * * * * * * * * * * * * * * * * * * * * * * * * * * * * * * * * * * //

dimensions      [1 -1 -2 0 0 0 0];


internalField   nonuniform List<scalar> 
449343
(
91943.4
92118.7
92423.7
92763.3
92992.6
92949
92367.6
91182.4
89429.4
87300.5
85079.4
83041.1
81384.8
80230.1
79639.6
91946.2
92121.7
92426.8
92766.4
92995.1
92949.7
92367.4
91182.1
89430.2
87303
85083
83044.6
81387.4
80231.8
79640.9
91951.5
92127.4
92432.9
92772.2
92999.5
92950.5
92365.8
91180.2
89430.9
87307.2
85089.9
83051.5
81392.7
80235.4
79643.4
91958.9
92135.3
92441.3
92779.9
93004.8
92949.3
92361.8
91174.8
89428.8
87311
85099.2
83061.6
81400.5
80240.7
79647.3
91967.5
92144.5
92451.1
92788.7
93010.2
92946.7
92355.1
91167.3
89425.6
87315.4
85110.7
83074.4
81410.6
80247.6
79652.5
91976
92153.7
92460.8
92797.4
93016.2
92946.4
92350.7
91163
89425.7
87323.1
85124.1
83089
81421.9
80255.6
79658.6
91983.2
92161.5
92469.1
92805.3
93021.5
92948.8
92350.9
91162.1
89429.4
87333.2
85136.5
83103.3
81432.9
80263.6
79665.1
91988
92166.5
92474.4
92810.7
93026.1
92952.7
92350.6
91160
89427.4
87338.5
85144.9
83112.1
81440.6
80270.1
79671.1
91989.8
92168.2
92476.1
92812.7
93029.3
92957.2
92359.5
91171.3
89439
87344.2
85148
83114.8
81444.3
80274.8
79676.2
91988.9
92166.9
92474.6
92812
93032
92963.6
92369.3
91182.8
89446.5
87344.4
85145.9
83110.9
81443.9
80277.4
79680.3
91986.1
92163.6
92471
92809.9
93032.9
92971.7
92382
91196.2
89456.2
87346.9
85142.6
83106.4
81442.4
80279.2
79684
91982.5
92159.5
92466.6
92806.8
93033.6
92980.7
92395.8
91211.2
89467.2
87350.8
85139.7
83102.2
81440.9
80280.7
79687.2
91979.1
92155.6
92462.5
92803.6
93033.2
92987.3
92405.6
91222.8
89475.8
87353.9
85137.3
83099
81439.9
80282.2
79690
91976.5
92152.7
92459.3
92801
93032.2
92990.5
92411.4
91229.2
89479.8
87354.2
85135.1
83096.8
81439.4
80283.4
79692.1
91975.1
92151.2
92457.7
92799.6
93031.4
92991.7
92413.7
91231.7
89481.3
87354.2
85134
83095.8
81439.2
80284
79693.3
91747.7
91971.6
92377.6
92875.3
93301.9
93477.4
93048.2
91823.1
89837.5
87379.8
84860.2
82615.2
80838.7
79622.2
79006.3
91750.5
91974.8
92381.3
92879.4
93305.5
93478.7
93047.7
91822.5
89838.6
87383.7
84865.1
82619.2
80841.1
79623.4
79007
91756
91981
92388.7
92887.4
93312.3
93481
93045.6
91820.7
89841
87391.8
84876
82627.9
80846.3
79626.1
79008.4
91763.7
91989.8
92399.2
92898.3
93320.2
93479.6
93036.6
91807.8
89836.4
87399.1
84891.3
82641.1
80854.2
79630.2
79010.8
91772.7
92000.3
92411.9
92911.1
93329
93471.5
93021.6
91792.3
89816.9
87406
84911.2
82658.8
80864.9
79636
79014.3
91781.9
92011.1
92425
92925.1
93339.4
93472.6
93013
91784
89819.5
87415.4
84933.8
82679.9
80877.8
79643.1
79019
91789.7
92020.2
92436.4
92936.9
93345.5
93480.7
93014.4
91783.1
89824.8
87434.2
84967.5
82703
80890.4
79651
79024.7
91794.7
92025.7
92442.5
92944.3
93352.4
93485
93013
91730.4
89814.6
87437.3
84978.5
82713.4
80898.2
79657.8
79030.6
91796.4
92027
92443.6
92944.5
93353.2
93489.4
93023.3
91792.5
89835
87446.1
84979.9
82715.3
80902.3
79662.6
79036.3
91795
92024.5
92439.1
92940.3
93356
93490.4
93032.4
91805.1
89841.5
87437.7
84956.5
82703.1
80900.8
79665.9
79041.7
91791.7
92019.8
92432.4
92932.9
93352.4
93497.5
93049.9
91823
89850
87440
84945.4
82692.8
80898.4
79669.1
79047.2
91787.8
92014.5
92425.2
92926
93350.2
93512.2
93072.3
91846.4
89877.1
87441.6
84934.5
82684.2
80896.8
79672.2
79052.5
91784.1
92009.8
92419
92919.8
93347.4
93519.6
93087.5
91866
89889.1
87441.8
84926.6
82678.3
80896
79675.1
79057.1
91781.4
92006.5
92414.6
92915.1
93344.1
93521.5
93094.1
91872.6
89891.7
87438.5
84920.7
82674.6
80895.8
79677.4
79060.5
91780
92004.7
92412.4
92912.7
93342.3
93522
93096.8
91875.5
89893.1
87437.3
84918.4
82673.2
80896
79678.7
79062.4
91256.1
91590.7
92229
93098.1
94024.6
94757.4
94785.1
93459
90849.3
87527.3
84272.1
81553.5
79512.1
78161.6
77491.4
91258.9
91594.2
92233.9
93104.3
94031
94761.3
94784.6
93458.9
90852.2
87535
84280
81558.2
79513.7
78161.5
77490.6
91264.4
91601.4
92244.1
93117.9
94044.8
94769.2
94778.2
93457.1
90856.5
87554.1
84300.5
81569.8
79517.8
78161.7
77489.3
91272.3
91611.8
92259.5
93138.1
94064.9
94771.3
94754.2
93445.5
90835.5
87572.9
84336.4
81590.9
79525
78162.6
77487.9
91282
91624.9
92279.2
93163.1
94081.3
94752.8
94673.1
93349.3
90768.5
87600.1
84376.5
81617.7
79535.9
78164.8
77487
91292.1
91639.2
92301.1
93188.3
94105.7
94743.8
94650.3
93338.7
90772
87625.2
84438.6
81653.3
79549.5
78169.2
77487.7
91300.6
91650.6
92317.1
93216
94116.6
94762.1
94643.8
93329.7
90774.9
87647.8
84563.3
81693.7
79567.1
78175.6
77490.6
91306.3
91657.9
92325.9
93228.2
94132.4
94785.6
94680.3
93258.3
90768.2
87652.3
84575.6
81706.1
79576.4
78183.1
77496.3
91307.4
91657.4
92324.3
93224.1
94124.8
94771.5
94654.2
93342.1
90787.7
87661
84576.9
81707.1
79579.9
78188.1
77503.2
91305.8
91653.3
92316
93204.4
94123.9
94763
94671.3
93361.8
90797.5
87651.1
84465.1
81679.6
79575.1
78194.2
77512.4
91301.8
91645.4
92300.8
93186.4
94106.6
94780.9
94704.4
93384.1
90806.2
87639
84415.6
81656
79573.2
78201.1
77522.9
91297.5
91637.7
92286.9
93167.8
94097.6
94806.7
94794.2
93489.5
90883.1
87621.9
84386
81639.7
79572.5
78209
77533.5
91293.8
91631.7
92276.2
93152.6
94082.9
94811.7
94825.3
93509.2
90912.1
87611.9
84358.6
81626.9
79573.3
78215.9
77542.6
91291.2
91627.6
92269.1
93142.5
94073.1
94807.9
94836.6
93516.2
90913.6
87598.6
84344
81621.1
79574.9
78221.1
77549.2
91289.9
91625.6
92265.9
93138.1
94068.7
94806.2
94839.6
93519
90913.6
87594.1
84339.2
81619.3
79576.1
78224
77552.8
90334.8
90831.2
91818.5
93276
95088.1
96927.6
98159.5
96662.5
92658.6
87526.4
83009.9
79610.3
77235.3
75733.1
75007.8
90336.9
90834.4
91824.3
93285.2
95099.6
96936.6
98154.6
96663.6
92662.7
87539.6
83020.9
79613.8
77234.1
75730.2
75004.3
90341.2
90841.5
91837.4
93307.8
95128.3
96957.9
98152.3
96673.6
92690.5
87586.9
83052.4
79623.8
77232.8
75725
74997.8
90347.6
90852.4
91859.2
93347.2
95172.7
96994.3
98011.2
96688.6
92643.7
87708.1
83135.2
79648
77233
75718
74988.9
90356
90867.2
91888.8
93395
95236.2
96963
97132.9
96249.7
93246.3
87814
83222
79685.5
77234.9
75709.9
74978.6
90365.6
90884.7
91929.1
93475.1
95304.8
96138.1
97041.3
96224.2
93278.8
88970.1
83384.8
79739.7
77244.9
75704.1
74970.1
90373.5
90899.8
91957.5
93524.9
94666.5
96188.6
97018.3
96189.2
93253.4
88998.6
84599.8
79777.4
77252.4
75702
74965.4
90378.8
90909.6
91973.3
93542.9
94667.4
96219.9
97055.2
96098.9
93249.7
89013.7
84582.9
79789.9
77273.6
75712.9
74969.2
90380.5
90907
91965
93533.6
94665.8
96210.4
97032.4
96180.6
93264.7
89016.6
84597.3
79791.5
77265
75716
74979.6
90380.3
90900
91945.5
93492.9
95324
96165.6
97041.3
96219.3
93278.9
89019.1
83418.7
79770.9
77274.8
75732.2
74997.7
90377.2
90889.1
91912
93420.2
95264.7
96995.4
97152.4
96275.1
93306.5
87860.7
83269.2
79730.7
77277.8
75751.1
75018.9
90374.5
90880.2
91888.9
93379.7
95208.9
97034.4
98059.6
96742.8
92704
87770.2
83196.1
79706.1
77288.1
75770.6
75040.1
90372.6
90874
91872
93345.7
95170.7
97006.1
98207.3
96736.4
92758.5
87658.2
83123.2
79691.7
77297.2
75786.6
75057.9
90371.4
90870.1
91862.4
93327
95146.3
96989.5
98215.8
96733.2
92738.4
87618.9
83099.4
79688.9
77305.3
75798.2
75070.6
90370.9
90868.5
91858.4
93319.8
95137.1
96983.1
98223.5
96735.4
92738.2
87609.5
83092.1
79689
77309.9
75804.4
75077.2
88782.2
89455.4
90845.7
93041
96127
100075
104165
102106
95443.5
86723.1
80397.3
76377.6
73795.4
72244.3
71522.4
88781.9
89456.6
90850.2
93051.8
96144.6
100093
104166
102112
95467.6
86753.1
80410.3
76375.3
73788
72236.5
71514.8
88781.7
89459.9
90861.6
93080.5
96200.5
100151
104189
102125
95519.6
86802.8
80434
76367
73772.1
72221.1
71499.8
88781.9
89466.2
90884.5
93156.1
96368.1
100296
101872
102181
96953.3
87303.7
80615
76388
73752.3
72199.1
71478.3
88782.4
89474
90920
93239.7
96511.9
98776.6
101876
102097
97019.7
89377.8
80742.6
76390.6
73723.4
72166.9
71451
88785.6
89493.2
90985.9
93457.1
95641.1
98956.9
101910
101968
96964.3
89547.7
82858.2
76461.9
73691.8
72144.2
71426
88785.4
89494.6
90992.6
92875.4
95699.5
99064.9
100943
101211
97177
90474.5
83049.6
78273.3
73622.7
72104.1
71402.6
88792.2
89507.9
91065.1
92876.2
95743.5
99097.8
100975
101195
97205.7
90524.6
83137.1
78337.4
73745.7
72105.9
71408.5
88792.2
89501.7
90999.9
92867.8
95737.6
99095.9
100960
101210
97190.2
90530.7
83130.3
78336.4
73637.2
72121
71418.6
88802
89510.3
91004.4
93477.4
95660.2
99010.1
100993
101235
97199.5
89623.1
82965.5
76499.6
73727.7
72175.6
71457
88804.9
89497.4
90945.1
93267.6
96543.6
98850.5
101896
102011
96986.4
89539.3
80802
76445.5
73773.2
72214.5
71496.8
88810.9
89496.4
90917.1
93192.3
96409
100343
101888
102209
97096.6
87386.1
80692.4
76459.1
73817.6
72259.6
71536.6
88815.5
89495
90899.4
93122.3
96247.7
100205
104253
102203
95607.1
86896.6
80524.1
76450.3
73848.4
72292.3
71568.4
88819
89495.1
90891.7
93098.1
96197.2
100154
104238
102196
95566.1
86858.8
80511.3
76468
73872.5
72315.2
71590.4
88821
89495.8
90889.2
93089.4
96182.1
100139
104241
102195
95546.3
86833.3
80502.9
76474.7
73884.2
72326.9
71601.7
86341.1
87143.8
88863.5
91765.7
96306
103475
109507
115868
103499
83032
75270.2
71313.3
68915.6
67589.1
67006.5
86336.1
87139.9
88862.3
91772.4
96329.5
103500
109515
115864
103495
83041.3
75266.5
71294.6
68897.6
67574.9
66994.2
86326.2
87132.1
88859.9
91777.4
96366.7
103569
109531
115842
103447
82964
75201.8
71225.5
68853.5
67544
66968.6
86312.5
87125.4
88869.6
91842.4
96747.9
101439
109694
115901
103305
87123.3
75282.4
71098.2
68789.5
67500.6
66931
86292.1
87103.3
88855.5
91922
95557.1
101717
109962
113319
104404
87805.9
78439.2
70970
68643
67422.8
66879.6
86279.1
87086.3
88921.2
91551.7
95705.6
100828
108135
112230
104395
89945.8
78545.4
73326.9
68511.2
67332.6
66826.9
86261.4
87058.1
88924.2
91608.5
95866
100850
107216
112151
104759
90830.7
80199.9
73356.1
68399
67254.1
66782.3
86253.1
87033.4
88968.7
91680
95250.3
100381
107239
112124
104722
90828.4
80185.3
73369.1
70368.2
67197.9
66772
86269.1
87066.4
88935
91655.6
95249.7
100857
107246
112133
104735
90845.4
80201.3
73345.9
68421.2
67272.5
66799.3
86297.1
87104.9
88940.5
91561
95843.3
100875
107217
112183
104798
90886.5
80272.7
73404.9
68550.1
67369.2
66862
86315.7
87128.2
88882.6
91953
95594.9
101854
108078
113254
104456
89916.1
78616.6
71038.6
68702.5
67476.9
66931
86343.9
87158.4
88905.7
91882.2
96793.5
101532
109781
115960
103355
87344.6
75382.8
71185.4
68865.6
67569.8
66996.8
86362.4
87169.9
88900.8
91823.4
96419.1
103629
109616
115903
103507
83096.6
75320.4
71329.1
68944.2
67625.9
67046.1
86376
87181.6
88907.7
91823.4
96388.4
103569
109591
115953
103621
83195.6
75401.5
71410.6
68998.2
67665.5
67079.8
86382.8
87187.4
88910.9
91818.9
96367.6
103548
109593
115975
103634
83191.6
75410.8
71434.3
69021.1
67684.1
67096.4
82776.7
83566.1
85303.9
88394.6
93493.5
100457
116978
147750
109720
76731.2
65606.2
63607.3
62354.3
61776
61542.6
82765.3
83554.3
85291
88380.8
93488.5
100458
116962
147740
109723
76696.2
65557.7
63557.9
62326.2
61757.4
61527.5
82739.5
83523.1
85253
88320
93394.8
100451
116890
147688
109637
76611.2
65397.7
63436.9
62256.8
61712.1
61494.6
82701.9
83480.9
85202.1
88121.3
92845.3
100858
116907
147494
109223
76536.9
68827.1
63055.5
62136.8
61639.5
61444.6
82641.8
83396.6
85021.6
88224.7
92884.5
100010
114105
147380
109839
80122.9
68430.8
65315.4
61846.2
61525.5
61373.3
82579.9
83257
85546.5
88299.6
92662.6
99989
112711
142330
114118
81922.5
70551.8
65081.3
63608.5
61358.1
61298
82551
83222.1
85556.5
88310.1
92699.8
99599.6
112615
142214
114025
81862.6
71711.7
66628.1
63524.4
61310
61258.6
82517.4
83190.9
85623.5
88345.1
92705.5
99582.8
112578
142176
114038
81866.2
71687
66599.9
63523.9
61312.3
61222.3
82557.9
83229.1
85579.7
88367.3
92732.1
99591.3
112587
142185
114039
81877.1
71707.1
66628.4
63501.3
61330.2
61276.7
82599.1
83277.7
85584.7
88300
92731.6
99620.2
112643
142246
114067
81912.4
71758.6
66687.6
63605.9
61398.5
61336.2
82667.5
83423
85050.9
88259.5
92926.3
100070
112765
142393
114216
82026.6
70782
65263.2
61915.1
61585.5
61429.4
82735.2
83516.4
85242.2
88165
92786.1
100821
114226
147439
109370
80536.1
68822
63158.5
62224.4
61716.7
61516.8
82778.3
83563.6
85297
88370.3
93453
100533
116961
147657
109589
76737.8
65552.3
63562.1
62361.3
61803.5
61579.8
82808
83599.2
85340.3
88436.6
93553.2
100541
117026
147814
109884
76920.7
65736.9
63700.2
62443.1
61859
61621.9
82821.4
83612.9
85355.1
88452.6
93561.3
100531
117067
147866
109936
76943.2
65789.7
63755.7
62477
61882.7
61641.7
78002.5
78535.3
79688
81706.8
84825.1
91541.2
98624
94625.2
25039.2
48509.2
51516.4
53322.6
54447.8
55164
55480.2
77985.9
78516.6
79665.6
81674.6
84800.9
91512.5
98602.4
94541.3
25348.6
48456.9
51429.1
53275.2
54427.8
55149.8
55469
77947.7
78467.5
79608.8
81628.3
84708.2
91429.3
98525.6
94480.2
25118.8
48375.1
51292.3
53226.8
54386
55116.7
55445.4
77887.4
78379.9
79503.3
81370.1
86018
91060.6
98295.3
94370.7
24308.2
48321.6
52891.5
53230.5
54328.4
55062
55412.1
77794.1
78250.9
79285
82542.9
85798.7
91523.5
99166
94241.1
23622.9
51483.5
54380.1
54691.8
54284.3
55013.3
55367.2
77680.7
78112.9
80505.8
82446
86295.5
91788.1
98975.8
93996.1
23734.5
51684.1
55262.2
54718.6
55605.7
55011.7
55325.4
77646.4
78065.5
80508.5
82382.5
86560
91727.8
98871.7
93871.9
23337.7
51731.5
55340.1
55728.6
55543.4
55038
55328.4
77628.1
78037.1
80483.1
83036.9
86564.6
91702.6
98827.8
93762.5
23877.2
51800.6
55377.9
56315
55573.7
55066.8
55319.9
77656.4
78075.8
80489.4
83033.6
86572
91711.5
98837.3
93790.9
23645.4
51801.8
55392.7
56327.9
55549
55058.8
55347.8
77700.1
78132.9
80534.6
82409.6
86577.1
91755.4
98902
93900.6
23522.5
51792.2
55391.5
55776.7
55590.6
55053
55364.7
77821.8
78280.5
79319.2
82524.2
86346
91831.7
99028.6
94047.1
23766.3
51822.2
55346
54704.2
54356.6
55076
55425.7
77923.1
78417.4
79544.4
81419.9
85983.8
90827.3
98124.9
94346.2
24646.5
50184
52879.5
53344.7
54423.2
55143.7
55487.8
77988.8
78510.9
79656.7
81680.9
84770.5
91298.3
98444.4
94453.5
24162.3
48523.2
51485.5
53370.9
54500.5
55214.2
55535.1
78031.1
78564.4
79718.7
81735.9
84871.9
91556.9
98632.1
94577.4
25752.5
48794.8
51662.8
53441.2
54557
55258.7
55568.7
78049.7
78585.2
79743.3
81770
84899.1
91612.7
98699.9
94652.7
25800.8
48851.4
51755
53495.8
54583.5
55278.4
55584.9
72246.2
72299.1
72380.3
72492.8
72892.9
77276.3
80952.3
93603.2
2190.37
27677.7
37769.7
43168.9
46638.6
48643.6
49532.5
72230.8
72281.7
72362.8
72475.5
72897.3
77252
80929.2
93407
2288.61
27575.9
37715.1
43166.9
46642.4
48643.2
49532.4
72198
72242.3
72321.6
72472.1
72893.3
77175.2
80857.1
93347.9
2268.57
27588.4
37722.8
43207.7
46657.3
48650.7
49536
72149.1
72169.5
72265
72573.5
75614.9
77138.6
80674.1
93232.7
2547.8
27890
38403.2
43469.1
46720.8
48676.5
49552.6
72077.5
72075.2
72231.2
74560.6
75691.5
78912.4
81719.5
93223.6
2385.4
28090.4
39207.8
44514.5
46905.1
48747.8
49584.4
71992.3
72052.5
73895.1
74520.4
76941
79696.7
81612.7
92916.2
2783.97
28379
39627.6
44605.9
47794
48888.2
49626
71974.2
72031.5
73866.1
74499.5
77590.7
79619.3
81540
92853.7
3527.61
28491.5
39714.6
45090
47820.1
48947.5
49664.6
71964.2
72014.3
73829.9
75553.2
77556.9
79588.6
81511.6
92774
3332.5
28526.7
39760.2
45365.4
47861.3
48982
49672.2
71985.1
72043
73837.2
75547.4
77567.2
79599.5
81522.8
92817.6
2557.81
28545.6
39775
45379.2
47860.7
48968.3
49683.8
72012
72073.1
73875.9
74544.4
77604.7
79653.1
81574.5
92882.3
2760.8
28545.3
39761.1
45144.9
47841.4
48928.2
49663.9
72106.8
72106.4
72266.3
74558.8
77017.1
79762
81668
92962.6
2335.22
28477.8
39691.7
44605.8
46977.1
48809.4
49641.8
72186.4
72209.5
72311.4
72627.7
75739.9
77334
80938.7
93301.5
2372.55
28207.3
38709.2
43587.5
46815.9
48757.4
49627.2
72240.8
72288.2
72373.8
72533.2
72965.1
77217.3
80831.1
93316.2
2750.83
27986.6
37918.4
43353.8
46772.3
48747.7
49624.7
72277.7
72331.8
72419.2
72541.1
72976.3
77298.9
80966.4
93439.8
10451.8
27997.5
37958.8
43337.3
46773.3
48752.2
49631.4
72295
72351.4
72439.3
72561.9
72976
77358.2
81034.1
93506.7
4309.42
28024.6
38018.9
43346.3
46776.2
48758.2
49636.6
66140.8
65663.1
64680.1
63178.9
63411.8
63346.1
66439.6
2213.94
19787.9
29786.2
36179
40659.9
43369.4
44630.7
66131.8
65653.5
64673.5
63179.4
63407.4
63335
66427.4
2218.61
19904.2
29818.4
36218.6
40679.7
43379.9
44639.2
66116.6
65639
64651.1
63154.3
63480.3
63343.9
66381.9
2231.53
19797.8
29905.7
36268.3
40715.8
43411.4
44660.3
66106.4
65625.7
64640.8
63311.1
63920.2
63313
66234.4
2244.35
19841.5
29709.4
36523.4
40808.2
43480.7
44705.2
66099.6
65618.1
64783.2
65442.7
64461.7
65284.1
66826.4
2265.99
18194.5
29602
36764.5
40940.2
43587.1
44775.2
66087.8
65733.9
66457.9
65666.8
65852.6
66216.6
66772.1
2272.54
18253.1
29562.3
36837.1
41336.6
43673.5
44859.7
66100.3
65763.5
66395.4
65748.8
66637.3
66247.9
66761.5
2279.78
18290.7
29620.8
36937
41389.3
43712.1
44893.5
66096.9
65764.8
66378.6
66697.5
66709.8
66261.8
66768.1
2291.7
18305
29649.2
37011.2
41375
43740.9
44899.4
66111
65775.5
66379.4
66712.1
66720.7
66273.7
66783.3
2305.91
18324.9
29663.4
37022.3
41386.8
43731.3
44911.2
66107.7
65754.9
66409.8
65782
66663.5
66282.5
66806.3
2309.16
18335.7
29660
36974.6
41415.6
43710.3
44893.7
66129.2
65650.2
64816.5
65482.6
65866.3
66268
66838.6
2317.3
18302.6
29627.7
36855.8
41003
43642.2
44827.8
66143.9
65666.9
64691.6
63372.8
64128.7
63513.9
66107.2
2332.44
18842.3
29940
36623.6
40892.8
43554.2
44773.5
66159.4
65685.6
64704.9
63218.1
63628.4
63414.3
66396
2370.92
19875
30065.4
36395.3
40819.3
43499.9
44741.6
66178.5
65704.1
64732.2
63248.6
63561.7
63442.2
66506.1
2395.12
20296.6
30022.7
36371.1
40799.3
43480.2
44730.4
66189.4
65715.9
64741.6
63253.2
63489.3
63449.9
66553.6
2397.14
20311.9
30020.1
36344
40787.9
43475.4
44726.9
60513.4
59527.8
57485.7
54068.9
52651.6
47290.6
44726.2
2545.56
2200.93
16851.3
26141.3
32613.9
37221.6
40103.7
41496.7
60507.1
59520.8
57479.3
54065.7
52641.6
47277.1
44729.6
2563.7
2206.2
17191.2
26186.8
32658.3
37237.9
40111.9
41502.1
60497.5
59513.2
57456.4
53998.1
52626.1
47245.1
44712.1
2906.06
2218.75
14735
26301
32678.6
37254.1
40129.4
41512.6
60503.4
59524.1
57417.2
54045.8
52653
47204.2
44700.7
2298.7
2257.37
15187
25024.6
32744.3
37291.1
40171.3
41537
60533.4
59548.8
57501
56738
52816.9
49791.6
46453.8
2300.1
2291.19
13896.5
24339.8
32078.5
37313.2
40230.7
41572.8
60564.5
59671.8
59347.7
56842.1
54549.3
51009
46584.5
2285.18
2288.19
13870.5
24016.9
32100.1
37041
40231.4
41631.3
60585.9
59696.1
59351.5
56839.8
55365.6
51057.1
46637
2637.85
2308.84
13882.5
24037
31755.7
37082.9
40225.5
41636.9
60585.1
59708.4
59348
58018
55430.9
51090.7
46701.1
2577.15
2290.28
13883.2
24050.2
31608.4
37086.5
40240.1
41638.3
60596.4
59709.2
59355.5
58044.3
55443.6
51107.1
46722.5
2529.01
2284.94
13904.1
24063.8
31619.4
37096.1
40241
41652.3
60583.8
59693.1
59379
56885.6
55423
51105.9
46717.5
2934.29
2256.07
13930.6
24072.9
31796.2
37111.1
40261.3
41659
60561.7
59581.6
57541.4
56805.9
54593.1
51070.9
46682.9
2312.8
2291.46
13922.3
24082.8
32131.9
37364.1
40275.6
41617.2
60538.9
59563.9
57468.2
54113.8
52705.3
47379.2
44894.8
2731.27
2427.21
14547.7
25124.6
32824
37359.5
40232.3
41593.9
60537.4
59557.6
57510.4
54068.7
52676.2
47326.9
44821.2
2303.24
2362.64
15028.4
26416.6
32776.7
37338.1
40202.7
41580.8
60550.5
59569.3
57539
54145.7
52739.9
47390.1
44866.9
3338.53
2368.18
17378.5
26334.9
32776.6
37336.5
40195.9
41579.1
60558.5
59578.3
57547.9
54152.9
52749.4
47432.4
44907.9
3087.28
2379.82
17176.5
26324
32750.7
37329.3
40193.1
41578.1
56122.6
54664.7
51608.9
46357.1
37853
31161.3
12519.6
2267.98
2209.56
16862.7
25207.1
31500.6
36086.2
38968.3
40377
56109.7
54649.9
51588.3
46340.9
37824.5
31123.6
12464.4
2254.08
2219
17123.3
25140.9
31518.5
36079.9
38962.4
40369.6
56085.8
54625.7
51552.2
46257.1
37690.3
30884.6
12404
2260.59
2235.29
15054.9
25109.3
31504.7
36060.4
38946.4
40352.1
56069.2
54622.8
51479.8
46283.7
42200.4
30791.1
12341.1
2288.82
2262.92
13983.9
23019.8
31422.9
36022.6
38930.5
40333.4
56079.2
54629.5
51471.5
49199.5
42321.7
34455.8
18353.9
2295.03
2337.11
12136.7
21976.7
29949.1
35952.2
38932.3
40310.7
56101.1
54631.5
53517.6
49194.1
44482.8
36191.6
19343.1
2310.33
2281.94
12051.7
21448.7
29871
34985.7
38880.4
40323
56099.3
54616.7
53537.4
49120.2
45422.6
36203.5
19275.9
2301.63
2304.16
12043.8
21429
29179
34965.9
38845.4
40301.8
56092.7
54623.8
53538.7
50594.5
45386.3
36211.9
19357
2310.61
2300.02
12027.2
21423.7
28855.5
34961.6
38845.5
40299.7
56108.9
54629.1
53550.4
50615.1
45401.9
36238.2
19361.2
2307.73
2297.05
12051.8
21436.5
28866.3
34979.3
38856.6
40313.8
56118
54652.3
53587.2
49178
45475.2
36278.4
19419.6
2321.62
2293.1
12092.3
21462.6
29226.3
35013.5
38903.3
40343.7
56103.3
54658
51511
49360
44543
36282.1
19511.1
2313.52
2293.33
12111.5
21514.3
29935.9
35990.1
38965.4
40344.1
56098.7
54656.7
51524.2
46346.3
42370.3
31200.8
13962
2297.72
2282.6
12943.7
23078.5
31480.8
36072.4
38975.5
40375.1
56118.3
54663.6
51602.1
46328.8
37794.6
31028.2
12526.9
2284.01
2364.4
14911.5
25176.9
31571.5
36119.8
38999.4
40402.7
56145
54691
51642.1
46415.3
37941.2
31199.8
12646.4
2250.79
2369.82
17229.6
25184
31589.2
36149
39023
40427
56159.1
54707.4
51664.9
46437.5
37978.2
31329.3
12765.8
2252.73
2382.03
16953.9
25263.5
31583.6
36160.6
39032.8
40437.8
53650.9
51908.4
48267.5
42188.6
32952.3
22999.2
2174.8
2268.24
2187.91
16465.6
25977.3
32412.1
36998.5
39836.9
41212.8
53623.5
51878.7
48224
42155
32968.7
23019.4
2191.29
2272.26
2202.69
16239.1
25859.2
32393.6
36959.1
39810.8
41189.1
53573.1
51824
48147.3
42046.6
32846
24137.6
2211.7
2283.77
2234.48
13681.4
25852
32346
36897.9
39759.8
41142.6
53519.5
51796.7
48091.1
42086.7
36168.7
24127.2
3826.91
2289.76
2260.56
13694.5
23059.2
32206.8
36799.4
39689.8
41085.6
53487.7
51782.3
48096.3
44349.8
36261.7
26610
12070.9
2284.3
2285.31
11825.5
21750.1
30061.1
36681.5
39637.2
41022.3
53477.4
51745.7
49609
44365.6
37984.6
27748.1
12292.1
2292.13
2298.99
11709.5
21042.6
29920.2
35102.8
39567.5
40990
53448.9
51704.5
49635.3
44330.9
38751.2
27681.2
11885.7
2292.66
2316.19
11691.8
20985.8
28896.6
35038.3
39515.7
40950.9
53436.7
51699.5
49645.2
45537.2
38695.4
27633.5
11671.2
2325.29
2301.95
11661.2
20959.8
28408.3
35015.8
39504
40944.6
53455.8
51713.3
49662.2
45553.1
38713.6
27669.7
11753
2308.23
2299.71
11680.8
20969.5
28417.4
35041.4
39522.2
40958.2
53488.8
51761
49691.8
44398
38802.6
27769.7
12116.8
2288.75
2304.2
11730.7
21012.3
28946.7
35103.6
39581.1
41003.2
53503.5
51802.4
48126.6
44512.6
38051.4
27857
12454.8
2284.95
2274.08
11761.6
21102.8
30015
36704.6
39657.5
41041.3
53537.7
51819.1
48123.1
42134.6
36315.9
24548.4
10829.1
2292.74
2297.56
12657.2
23108.7
32241.6
36829.6
39716.3
41110.7
53592.3
51848
48182.2
42101.4
32930.3
24391.8
2403.76
2292.93
2366.2
14029
25894.6
32388.3
36931.8
39790.9
41173.3
53643.8
51903.8
48259.3
42204.6
33048.9
23021.7
2413.82
2278.6
2394.52
16316.9
25844.5
32437.9
36996.8
39845.7
41224.1
53671.7
51934.1
48303.6
42241.7
33038.5
22986.5
2432.41
2254.26
2411.65
16602.1
25990.4
32461.7
37037.7
39873.7
41249.7
53602.2
51897.5
48337.8
42591.1
32940
21475.1
2223.9
2272.97
2185.3
19713.2
29084.6
35522.8
39971.7
42616.4
43884
53554.2
51845.1
48263.6
42486.7
32928.2
21441.8
2234.42
2266.65
2200.73
19468
28956.5
35448.6
39895.1
42568.9
43843.4
53467.6
51744.1
48122.6
42197.4
33723.2
21923
2233.29
2280.94
2229.16
15440
28909.4
35405.3
39794.2
42487.7
43771.3
53370.7
51656
47993
42010.3
35191.1
22348.4
3408.05
2285.6
2256.03
15266.9
25314.5
35222.8
39640.1
42376.5
43682.9
53292.3
51587.1
47893.5
43184.8
34791.9
24278.7
10082.7
2287.85
2267.57
12795.9
23582
32413
39483.1
42286.2
43592.1
53246.9
51516
48591.7
43021.4
35809.1
25017.2
10323.6
2286.04
2303.67
12700.5
22643.6
32201.9
37365.1
42215.1
43536.4
53194.4
51448
48562.4
42936.6
36257.7
24902.8
10245.8
2289.59
2286.83
12677.4
22537.3
30829
37247.3
42147.4
43482.9
53176.5
51429.4
48556.8
43740.2
36164.3
24812.9
10010.4
2334.06
2298.64
12623.7
22479.3
30161
37207.8
42125.7
43470.8
53196.6
51451.9
48583.6
43753.1
36184.4
24846.6
10089.4
2304.44
2302.19
12629.7
22481.6
30167.4
37237.4
42148.7
43484.7
53249.3
51522.6
48623.7
43031.1
36311.4
24992.2
10441.5
2277.66
2303.78
12669
22546.5
30877.2
37327.5
42218.6
43540.6
53295
51593.9
47909.7
43225.5
35903.5
25150.6
10646
2282.24
2251.36
12723.7
22688
32323.9
39488.4
42292.4
43597.6
53371.6
51660.3
48005.4
42035.3
35076.7
23005.1
9996.26
2286.11
2306.69
13787.6
25301.3
35233.5
39649.5
42384.9
43691.9
53466.8
51746.2
48131.6
42218.9
33771.4
22226.1
2719.49
2285.39
2370.52
15553.5
28934.3
35424.7
39804.5
42498.8
43783
53552.5
51845.4
48269.3
42498.8
32975.7
21485.7
2358.16
2280.75
2399.11
19484.3
28940.9
35477.9
39904
42581.9
43857.4
53599.9
51897.2
48342.3
42601.2
32985.6
21511
2367.77
2288.98
2415.62
19770.2
29092.4
35558.1
39982.5
42630.4
43899
56038.7
54659.3
51718.5
47035.8
38724.1
26547.3
2224.53
2296.9
2187.36
28205.5
35593.8
41418.6
45129.8
47238.4
48254.8
55964.8
54569.4
51585.2
46780.2
38397.9
26197.4
2235.56
2298.58
2217.42
27679.5
35353.4
41248.1
45004.7
47165
48195.2
55831.8
54399.5
51355.3
46184.7
38936.9
25655.5
5963.54
2290.53
2221.73
20488.2
35252.6
41085.8
44823.4
47048.5
48096.3
55678.9
54211
51058.3
45767.2
38210.3
25238.4
6557.49
2292.44
2244.55
19715.2
30543.9
40758.2
44581.4
46894.1
47976.6
55542.4
54052.5
50794.2
45645.3
37459.2
26058.5
9926.32
2287.56
2279.65
15749.7
28046.7
37261
44399.4
46768.8
47862.4
55452.8
53942
50627.6
45271.8
37712.7
26457.1
10794.5
2288.62
2282.44
15504.4
26663.9
36917.4
41743.9
46723.1
47797.1
55373.5
53842.4
50461.2
45086.6
37792.3
26280.6
10956.9
2317.46
3880.27
15552.2
26439.9
35151.3
41575.9
46650.2
47732.6
55347.5
53810.2
50420.1
45370.3
37637.7
26094.7
10436.2
2280.4
2313.66
15339.9
26322.1
34277.7
41524.1
46623.1
47715.7
55369.2
53839.5
50452.6
45387.1
37662
26128
10545.2
2294.47
2307
15314.4
26321.9
34283.5
41555.3
46646.4
47729.5
55443.3
53935.3
50536.7
45214.6
37854.3
26371.2
10860.8
2322.38
2308.69
15353.7
26439.4
35208.8
41669.3
46715.7
47792
55527.7
54040.3
50789.5
45502
37843.2
26628.9
10894
2284.96
2327.54
15492.2
26699.2
37089.7
44386.4
46760.9
47855.7
55658.2
54190.8
51042
45757.7
37860.9
25456.1
9721.66
2280.57
2323.39
17037.6
30293.4
40740.5
44568.7
46885.4
47970.6
55806.5
54373.5
51329
46158.2
38918.6
25646.6
6838.6
2299.91
2379.01
20074.1
35230.5
41072.9
44810.4
47041.7
48090.8
55936.9
54540.1
51554.6
46745.7
38388.8
26199
2365.87
2310.71
2426.62
27573.9
35333
41246.3
44987.6
47160.1
48191
56009.7
54628.7
51686.2
46999.8
38710.5
26540
2375.32
2309.66
2439.24
28110.2
35593.1
41424.4
45115.4
47234.8
48251.1
60524.9
59687.4
57854.5
55019.5
49310.4
42541
2407.6
2280.38
28927.8
44766.6
46534.1
50330.5
52294.2
53440.9
54031.8
60425.4
59552.9
57644.5
54601.5
48640.4
41704.1
2470.78
2910.74
28390.8
43792.6
46087.9
50005.7
52107.8
53336.9
53952.2
60249.6
59312.7
57331.2
53741.4
49102.7
36790.3
11988.5
2282.34
2228.43
32418.8
45771.3
49493.6
51810.6
53175.6
53822.5
60044.5
59034.7
56845.7
53196
45961.1
34552.1
13338.6
2274.58
2234.74
29397.2
39659.2
48944.3
51456.6
52974.6
53670.6
59859
58806.5
56516.8
51644.6
44727.9
33373.9
14674.8
2274.34
2278.69
22576.1
36233
44854.4
51256
52816.5
53536.9
59741.2
58693.8
55326.9
51014.5
43932.3
32676.6
15522.7
2252.48
4938.35
21661.6
34127.2
44391.1
48217.5
52796.6
53480.2
59642
58581.6
55058.5
50757.3
43516.8
32280.6
15633.9
2299.08
2273.14
21165.4
33620.6
42207.6
48004.5
52722.6
53408.6
59608.7
58541
54993.2
50424.6
43288.4
31973.1
14212.7
2294.46
2596.33
21062.7
33410.9
41130.8
47977.3
52697.6
53389.9
59629.5
58568.6
55022.8
50443.3
43323.6
32035.3
14264
2294.29
2320.8
21176
33431.1
41138
47999.1
52714.2
53401.8
59716.7
58668.3
55139.1
50907.1
43604
32489.5
15633
3805.97
2323.78
21348
33667
42273.6
48092.7
52780.2
53467.6
59823.7
58768.9
56476
51262.5
44126.1
33030.3
16916
2336.62
2333.52
21686.1
34191.3
44591.9
51226.6
52796.5
53519.9
59999.6
58984.8
56787.2
53123.6
45300.7
33873
14757.5
2285.81
2346.93
24489.2
39096.8
48894.6
51423.2
52951.2
53651.4
60198.6
59255.6
57261.3
53647.1
48965.7
35681.4
13206.6
2372.76
2412.25
30449.1
45684.3
49441.3
51776.1
53153
53802.7
60371.4
59492.7
57571.9
54500.1
48537.9
41365.7
2575.41
2870.15
26796.1
43401
45980.6
49946.4
52068.8
53316.3
53932.8
60469.9
59626.6
57780.8
54919.5
49206.3
42172.7
2553.69
2505.15
27907.5
44466.7
46470.2
50281.2
52259
53422.1
54012.9
66308.2
66187.9
66012.4
66813.7
67955.4
82433.9
126006
124674
85326.4
69227.4
61791.9
61423.3
60708.6
60614.7
60656.4
66195.4
66017.8
65719.8
66136.1
66575
78934.6
114420
110841
81828.5
67546.5
61060.2
60948.9
60482.5
60488.8
60563.6
65999.6
65719.5
65274.5
64436
64763.6
60711.4
65850.7
55878.9
55554.7
55237.6
59786.4
59899.2
60082.2
60282.5
60408.3
65772.8
65403.1
64629.8
63614.7
58809
53839.7
42823.1
8261.85
20799.8
49304.3
53807.5
59051.5
59633
60044.5
60232.3
65572.5
65146.1
64265.4
60648.1
57148.9
48452.8
28302.6
2210.01
6102.53
38047.9
49410.1
55217.9
59354.1
59865.5
60083
65454.4
65009.3
62243.7
59963.1
54798.8
45751.6
25372.9
2272.56
5809.22
35007.2
46521.8
54734
56532.5
59762.4
60022.6
65350.4
64895.6
61949.7
59702.7
53744.9
44971.9
25926
2616
2343.12
33603.3
45725.2
52302.3
56357.4
59678.1
59942.2
65314.1
64856.1
61873.8
58511.1
53485.9
44714.4
26676.9
2290.58
5553.21
33220.2
45387.1
51022.4
56340.5
59658.2
59924.1
65329.1
64871.6
61891.6
58530
53514
44849.4
27119.7
2282.61
5117.55
33209.6
45385.7
51021.5
56353.9
59666.8
59932.7
65414.1
64963.6
62005.5
59799.4
53816.7
45415.1
27459.7
2309.13
5971.84
33776.1
45754.8
52352.3
56423.5
59741.7
60005.1
65516.7
65080.3
64179.1
60114.3
54959.3
46231.2
26762
2322.18
6283.09
35274.8
46602.9
54902.5
59315.4
59837
60058.5
65705.8