/*--------------------------------*- C++ -*----------------------------------*\
| =========                 |                                                 |
| \\      /  F ield         | OpenFOAM: The Open Source CFD Toolbox           |
|  \\    /   O peration     | Version:  v2012                                 |
|   \\  /    A nd           | Website:  www.openfoam.com                      |
|    \\/     M anipulation  |                                                 |
\*---------------------------------------------------------------------------*/
FoamFile
{
    version     2.0;
    format      ascii;
    class       volScalarField;
    location    "0.048";
    object      p;
}
// * * * * * * * * * * * * * * * * * * * * * * * * * * * * * * * * * * * * * //

dimensions      [1 -1 -2 0 0 0 0];


internalField   nonuniform List<scalar> 
449343
(
106350
106462
106639
106787
106799
106430
105516
103984
101897
99472
97011
94793.3
93013.8
91783.6
91157.6
106334
106445
106623
106771
106781
106411
105495
103963
101876
99453.1
96992.9
94774.8
92994.2
91762.9
91136.3
106320
106431
106609
106756
106765
106390
105471
103938
101853
99433.7
96975.9
94757.4
92974.5
91741.1
91113.2
106308
106419
106597
106743
106747
106365
105443
103907
101826
99411.5
96959
94740.5
92954.6
91718.1
91088.5
106296
106408
106585
106729
106728
106338
105410
103873
101795
99387.5
96941.8
94723.6
92934.1
91693.7
91062.1
106282
106394
106572
106714
106708
106311
105378
103839
101765
99364.3
96923.7
94705.6
92912
91667.7
91033.9
106265
106378
106555
106697
106685
106284
105347
103806
101735
99341
96902.3
94685.2
92887.5
91639.6
91004.1
106244
106357
106534
106675
106660
106257
105315
103772
101701
99311.7
96874.3
94656.9
92857.7
91608.6
90972.6
106219
106331
106508
106649
106635
106232
105293
103751
101677
99279.7
96839.2
94621.3
92823.4
91575.5
90940
106190
106301
106477
106618
106608
106208
105270
103727
101649
99244.2
96800.8
94580.8
92786.1
91541.4
90907.4
106158
106269
106445
106587
106581
106186
105252
103708
101624
99211
96761.3
94540.4
92749.3
91508.2
90876.3
106126
106237
106412
106555
106554
106166
105237
103694
101604
99183.4
96725.5
94503.4
92715.2
91477.5
90847.5
106095
106206
106381
106524
106527
106146
105219
103678
101585
99157.4
96693.5
94470.5
92684.8
91449.8
90821.2
106068
106178
106353
106497
106502
106124
105200
103659
101564
99132.5
96665.4
94442.3
92658.3
91425
90797.4
106044
106154
106329
106473
106480
106103
105180
103640
101543
99109.8
96641.5
94418.4
92635.3
91402.8
90775.8
106224
106383
106662
106957
107156
107004
106217
104613
102262
99491
96726.8
94308.8
92419.5
91136.5
90490.1
106208
106368
106647
106942
107140
106985
106196
104591
102242
99473.5
96710.4
94291
92399.7
91115.2
90468.1
106195
106355
106635
106929
107127
106966
106172
104567
102221
99458.9
96697.9
94275.6
92379.8
91092.3
90443.7
106184
106345
106626
106920
107112
106940
106139
104527
102190
99439.4
96687.4
94262
92359.9
91067.8
90417.1
106173
106335
106618
106912
107098
106907
106099
104486
102141
99419.4
96680.6
94250.1
92339.5
91041.6
90388.3
106161
106325
106608
106903
107085
106881
106062
104448
102113
99399.6
96670.7
94237.5
92318.1
91013.8
90357.9
106146
106310
106595
106889
107060
106857
106032
104414
102083
99385.1
96670.5
94225.5
92294.1
90984.5
90326.2
106125
106289
106574
106869
107037
106830
105996
104330
102041
99352.3
96643.1
94197.5
92263.3
90952.5
90293.4
106099
106263
106547
106841
107010
106805
105977
104359
102023
99320.9
96604
94159.1
92228
90918.5
90260.3
106069
106231
106514
106807
106983
106776
105953
104333
101993
99275.4
96544.1
94108.6
92188.3
90884
90228.2
106036
106197
106477
106769
106949
106753
105938
104317
101964
99237.1
96493.7
94061.3
92149.7
90851.7
90198.4
106002
106162
106441
106732
106918
106741
105931
104310
101964
99206
96448.1
94019.1
92115.2
90822.4
90171.5
105971
106129
106407
106698
106889
106721
105919
104304
101949
99177.4
96410.1
93983.3
92085
90796.2
90147.1
105942
106100
106377
106668
106860
106698
105900
104286
101927
99149
96378.2
93953.6
92058.9
90772.6
90124.7
105918
106076
106352
106643
106836
106676
105881
104266
101906
99125.1
96353.1
93929.4
92036.4
90751.2
90103.9
105895
106164
106673
107334
107986
108405
108003
106214
103165
99485.8
95978.8
93107.4
90980.3
89585.7
88897.2
105880
106149
106660
107322
107974
108389
107982
106194
103147
99473
95966.2
93090.7
90959.7
89562.9
88873.5
105869
106139
106653
107318
107969
108377
107956
106173
103130
99471.8
95965
93078.7
90938.6
89537.1
88845.8
105860
106133
106651
107320
107968
108351
107905
106132
103071
99461.4
95975.4
93072.7
90917.2
89508.3
88814.3
105852
106128
106652
107325
107967
108307
107798
106015
102972
99476.1
95992.9
93069.9
90896.1
89477.1
88779.6
105843
106123
106653
107329
107976
108265
107747
105975
102944
99477.2
96018.1
93070
90873
89444
88742.9
105829
106111
106644
107325
107949
108248
107711
105936
102910
99467.7
96111.9
93074.4
90850.6
89410.1
88705.8
105809
106093
106625
107308
107934
108234
107703
105968
102865
99431.5
96077.5
93044.7
90817.9
89375.5
88669.8
105782
106064
106595
107275
107899
108194
107653
105872
102842
99396.8
96037.5
93002.1
90779.5
89339.4
88635.5
105749
106029
106558
107231
107873
108157
107635
105856
102814
99342.3
95878.7
92929.2
90733
89305.3
88605
105713
105989
106510
107179
107817
108151
107631
105838
102782
99279.8
95791.1
92866.6
90693.4
89275.8
88579.1
105677
105949
106465
107130
107772
108148
107693
105907
102833
99214.6
95720.8
92815
90659
89250.6
88557
105644
105913
106424
107086
107730
108131
107699
105903
102847
99177.2
95663.1
92772.6
90630.7
89228.6
88537.3
105614
105882
106390
107049
107694
108102
107684
105883
102824
99137.9
95622
92740.8
90606.7
89208.4
88518.4
105589
105856
106364
107021
107666
108078
107665
105864
102802
99110.9
95594.3
92716.4
90585.4
89188.8
88499.5
105231
105659
106514
107762
109264
110781
111487
109346
104768
99189
94428.4
90933.2
88529.4
87025.7
86304.9
105217
105646
106503
107755
109258
110773
111463
109329
104751
99183.7
94420.3
90915.8
88506.1
86999.9
86278.1
105207
105639
106503
107764
109273
110780
111444
109330
104768
99219.6
94435.3
90903.6
88479.6
86967.9
86244.2
105200
105637
106512
107790
109296
110790
111266
109320
104635
99303.5
94490.9
90899.5
88449.8
86929.7
86203.5
105196
105639
106528
107816
109340
110742
110468
109036
105482
99457.5
94567.9
90909.2
88417.1
86885.6
86156.9
105190
105641
106552
107882
109420
109935
110358
108985
105495
100740
94673.6
90924.4
88385.8
86837.4
86107.1
105177
105635
106557
107882
108751
109943
110306
108918
105430
100728
96004.4
90923.4
88343.6
86790.9
86058.7
105158
105620
106548
107873
108736
109939
110305
108795
105390
100701
95949.9
90889.3
88315.9
86754.1
86015.7
105130
105587
106508
107832
108704
109898
110252
108839
105354
100657
95916.6
90843.4
88264
86711.8
85980.7
105095
105546
106455
107781
109314
109841
110222
108828
105325
100608
94505.1
90760.3
88226.4
86683
85955.4
105056
105498
106384
107668
109185
110584
110284
108845
105311
99239.7
94337.7
90679.8
88192.4
86665
85938.8
105017
105452
106325
107598
109096
110586
111044
109079
104370
99026.3
94207.1
90615.4
88168.6
86651.5
85927.1
104982
105412
106274
107530
109031
110534
111182
109049
104468
98903
94108.9
90573.9
88149.9
86639.2
85916.5
104951
105379
106234
107481
108977
110488
111162
109011
104415
98830.9
94056.1
90545.4
88133.1
86626.1
85904.3
104926
105352
106205
107449
108944
110458
111148
108991
104396
98800
94026.6
90523.6
88115.8
86610.3
85889
104025
104628
105884
107882
110670
114190
117805
114877
107174
97822.6
91361.6
87380.7
84872.4
83392.6
82712.3
104011
104615
105875
107880
110675
114196
117788
114869
107182
97838.4
91357
87357.5
84842.8
83361.4
82680.8
104001
104610
105879
107902
110725
114249
117800
114882
107249
97901.5
91375.3
87331.1
84802.5
83318.5
82637.2
103994
104610
105898
107977
110898
114369
115518
114978
108919
98340.8
91520
87318.1
84750
83262.7
82581.4
103988
104612
105929
108045
110971
112884
115465
114882
108962
100680
91646.5
87289.4
84683.2
83192
82514.5
103981
104623
105989
108240
110104
113053
115455
114721
108856
100890
93907
87327.7
84594.9
83118.9
82442.6
103966
104609
105991
107654
110172
113140
114521
114039
109227
101905
94042.4
89179.7
84455.9
83028.3
82369.8
103949
104601
106038
107655
110201
113155
114513
113988
109207
101890
94055.6
89191.2
84521.2
82975.5
82321.3
103917
104560
105940
107609
110154
113113
114460
113957
109141
101837
93989.4
89132.2
84359.2
82935.8
82280.9
103885
104525
105888
108136
110006
112960
114501
113935
109094
100762
93794.8
87123
84406.4
82941.9
82271.1
103846
104468
105781
107893
110813
112774
115259
114544
108611
100529
91361.2
87014.2
84423.7
82943.6
82271.9
103809
104424
105708
107783
110697
114160
115280
114715
108730
98008.9
91187.3
86993.2
84434.9
82956
82278.9
103775
104383
105650
107669
110484
114003
117535
114629
106924
97546.4
91011.8
86967.9
84442.6
82962.6
82284.1
103746
104349
105607
107609
110398
113914
117490
114560
106831
97460.2
90964.7
86959.6
84443.3
82962.5
82282.7
103721
104323
105578
107573
110356
113872
117472
114530
106795
97417.5
90937.8
86947
84434.6
82953.3
82272.9
102021
102752
104335
107052
111370
118165
123623
128693
114560
93025.6
85568.8
81906.4
79765.3
78626.5
78140.8
102004
102737
104324
107051
111387
118183
123629
128683
114558
93035
85549.9
81866.8
79725.4
78588.4
78103.5
101990
102727
104322
107059
111431
118262
123647
128684
114547
93012
85494.2
81786.5
79658.9
78529.2
78047.4
101977
102724
104343
107151
111886
116120
123772
128761
114526
97586.8
85545.1
81628.4
79558.3
78448.7
77972.3
101960
102708
104345
107262
110666
116437
124027
126357
115939
98244
88833.4
81441
79365.6
78328.3
77877
101947
102695
104420
106816
110780
115472
122272
125242
115861
100542
88918.6
83833.7
79154.9
78184.3
77771.6
101920
102659
104407
106858
110905
115525
121350
125209
116335
101459
90623.8
83809.5
78970.4
78043.5
77667.4
101891
102620
104355
106907
110245
114980
121350
125145
116240
101439
90539.9
83732.9
80903.2
77941
77602.9
101870
102607
104351
106843
110205
115449
121313
125102
116183
101370
90464.4
83628.3
78832.1
77930.5
77562.9
101847
102592
104312
106706
110780
115432
121224
125093
116178
101259
90448.2
83618.4
78924.3
77976.9
77573.5
101815
102561
104191
107102
110525
116326
121995
126031
115599
100090
88589.4
81089.1
79054.1
78042.6
77603.9
101792
102536
104151
106953
111680
115976
123599
128499
114186
97367.5
85140.9
81242.9
79197.6
78104.9
77637.6
101765
102500
104092
106827
111192
118015
123429
128390
114184
92589.5
85079.2
81378.3
79260.4
78140
77663.3
101741
102473
104058
106784
111118
117906
123357
128372
114196
92618.6
85121.5
81434.9
79294
78159.6
77676.7
101719
102450
104032
106748
111064
117854
123331
128360
114193
92606.5
85120.2
81445.2
79299.5
78159.4
77674.2
98987.8
99700.5
101294
104204
109179
116015
132488
162089
118261
85169.2
75054.1
73783.2
73054
72815
72748.5
98967.8
99680.9
101275
104187
109174
116009
132467
162065
118207
85147.8
74990.2
73713.2
73002.8
72770.5
72706.2
98943.8
99654.1
101245
104135
109094
116000
132405
162028
118264
85145.6
74855.3
73588.2
72910.8
72695.3
72639.5
98916.4
99625.9
101214
103969
108462
116387
132433
161913
117980
85167.8
78213.8
73187.6
72755.7
72583.7
72547.5
98872.6
99566
101086
104038
108553
115533
129486
161767
118828
89037.6
77836.9
75335.3
72426.5
72424.5
72426.7
98823.7
99451.2
101508
104137
108307
115570
128104
156738
123600
90970.4
80026.7
75111
74046.3
72219.3
72294.2
98789.7
99414.8
101506
104151
108366
115137
128033
156635
123483
90883.6
81206.2
76559
73893.2
72111.6
72186.2
98739.9
99364.8
101546
104156
108350
115104
127989
156572
123379
90750.1
81061.7
76422
73799.2
72043.6
72094
98736.8
99359.9
101469
104134
108330
115066
127950
156542
123262
90591.4
80929.6
76310.9
73682.4
71982.3
72064.6
98718.4
99340.1
101421
104019
108267
115022
127927
156538
123185
90480.3
80845.2
76266.6
73696
71974.5
72065.1
98725.6
99416.3
100922
103895
108416
115419
127960
156602
123233
90477.4
79661.9
74783.9
72043.4
72091.4
72114.4
98730.4
99435.3
101019
103764
108180
116151
129259
161613
117583
88813.7
77572.8
72723
72337.8
72196.5
72175.3
98719.8
99428.7
101017
103906
108864
115786
132207
161730
117655
84637.3
74375.7
73126
72469.3
72269.2
72221.6
98708
99420.7
101014
103927
108918
115777
132211
161795
117808
84711.1
74520.8
73243.6
72536
72309.3
72248.8
98690.7
99403.5
100997
103909
108890
115733
132211
161800
117877
84744.6
74582.9
73292.5
72556.9
72318.2
72253
94852.2
95288.6
96259.3
98046.5
100993
107711
115257
113260
25417
54597
60088.7
63245.1
65208
66434.5
66991.7
94830.6
95265.5
96235.6
98017.7
100975
107683
115232
113171
24416.8
54548.4
59979
63180.2
65163.3
66390.2
66948.7
94798.6
95226
96192
97985.9
100914
107628
115180
113118
25444.5
54625.7
59904.5
63123.4
65096.6
66322.5
66884.1
94758
95163.9
96120.7
97771.2
102190
107304
115016
113095
25275.8
54704.6
61281.9
63141.9
65017.6
66228
66801
94694.4
95077.7
95968.9
98917.1
102074
107789
115864
113061
25258.2
58028.6
62820.5
64405.2
64999.8
66142.1
66700.7
94606.7
94976.9
97066.7
98887.5
102579
108105
115815
112924
24824.1
58460.4
63808.6
64494.4
66017.2
66091.8
66594.2
94576.7
94942
97078.6
98860.2
102848
108130
115823
112935
25693.8
58697.8
63928
65351.5
65899.3
66031.4
66511.9
94538.6
94890
97041.6
99412.7
102852
108118
115807
112901
24817.2
58392.5
63768.7
65696.7
65831.6
65971.5
66424
94520.6
94881.3
96998.6
99361.8
102800
108053
115738
112862
24299.5
57931.2
63471.3
65505.8
65680
65868.8
66370.1
94500.3
94862.8
96968.8
98716.3
102705
107962
115650
112813
24229
57611.9
63203.3
64861.3
65576.8
65803.9
66333.2
94544.2
94920.4
95791.4
98715.6
102378
107886
115607
112807
24124
57452.6
62957.6
63801.6
64546.7
65760.3
66348.5
94571.4
94973.2
95922.5
97556.2
101930
106843
114615
113001
23903.7
55737.3
60514.4
62593.8
64542.4
65799.5
66392.2
94578.6
95004.7
95969.3
97762.9
100686
107233
114884
112996
23616.6
53933.7
59343.3
62612.6
64613.7
65861.6
66434.5
94576
95011.4
95982.1
97764.3
100733
107432
114996
113012
24142.5
54067.7
59494.5
62673.7
64662
65898.4
66462.5
94562.7
94999.8
95973.6
97768.2
100725
107445
115013
113019
24095.7
54171.2
59601.7
62726.7
64681.5
65909.4
66469
89872
89785
89583.1
89269.4
89225.5
93241.5
97040.5
110307
5575.74
33288.4
46396
53357.5
57892.4
60529.2
61709.7
89851.6
89764.6
89567.2
89256.3
89234.7
93223.6
97023
110127
3574.68
33291.5
46312.9
53338.8
57861.3
60488.6
61668.7
89828.3
89740.2
89552.4
89296
89271.6
93202
97009.1
110103
3379.18
33329.1
46338.6
53340.4
57830.1
60442.6
61614.5
89802
89695.2
89521.5
89443.2
92099.3
93304.4
96962.2
110124
2510.35
33588.4
46556.1
53574.9
57843.2
60404
61558.6
89767.7
89656.8
89587.6
91501.4
92332.4
95353.8
98309
110376
3389.05
33672.3
47371.6
54367.4
57945
60408
61510.6
89718.6
89691.8
91158.6
91567.6
93728.1
96407.5
98529.9
110325
2320.38
34713.1
48092.7
54460.9
58542.7
60387
61452.3
89708.4
89690.5
91144.3
91625.7
94474.9
96553.1
98772.4
110558
2141.81
35924.4
48399.2
54815.1
58452.6
60308
61372.5
89680.2
89653.9
91099.7
92586.7
94464.6
96582.8
98833.7
110600
2379.87
35393.3
48050.2
54796.3
58285.6
60220.6
61276.5
89652.1
89628.6
91044.6
92513.4
94374.4
96437.5
98632.2
110453
3954.94
34022.6
47394.9
54484.5
58124
60106.8
61208.4
89609
89571.2
90993.3
91439
94233.1
96213.5
98326.8
110186
2317.36
33208.5
46931.1
54035.4
58043.7
60040
61157.5
89618
89499.4
89403.9
91298.3
93437.7
96043.7
98083.3
109963
2371.31
32894.3
46691.8
53543.4
57403.8
59977.7
61121.2
89618.7
89506.6
89322.2
89225.6
91975.2
93258.2
97008.3
110128
2338.37
32871.1
46067.1
52969.4
57322.4
59943.5
61123
89613.9
89523.5
89328.7
89063.8
89043
92992.9
96764.1
109925
2430.67
32944
45781.7
52803.8
57318.7
59956.5
61141.2
89606.2
89520.2
89325.3
89021.2
89009.9
92989
96809
109938
2308.82
32890.7
45798.1
52798
57331.9
59972.9
61159.8
89592.1
89507.8
89312.9
89011.4
88983.5
93006.9
96825.9
109950
2530.05
32899.2
45877.9
52812.8
57339.1
59980.7
61164.7
84735.8
84063.1
82655.3
80376.8
79968.4
78677.7
81111
2302.38
25481.3
39299.5
47431.1
53049.1
56394.1
57946.1
84720
84048.2
82646.7
80380.5
79960.6
78670.3
81100.9
2298.31
25440.7
39240
47417.1
53006.9
56345
57898.2
84713.1
84050.9
82661.6
80424
80033.6
78742.4
81127.4
2296.13
25263.2
39284.4
47401.3
52964.6
56290.3
57832.9
84722.6
84068.8
82684.3
80679
80455.8
78884.5
81204.9
2294.5
25479
38272.2
47592.7
52951.1
56238.7
57763
84756.7
84121.3
82951.2
82904.7
81280.8
81411.7
82429.5
2297.89
23777.2
38143.3
47265.5
52981.4
56240.1
57706.1
84786.8
84310.9
84478.8
83348.6
83005.5
82951.4
83201.6
2277.47
26446.3
38621.2
47328.2
52792.9
56109.6
57629.8
84809.3
84354.4
84501.5
83597.7
84087.6
83590.6
84236.6
16101.4
33525.1
39119.8
47072
52661.6
55958.4
57509.9
84790.2
84343.5
84490.9
84490.7
84258
83799.5
84552
34371.3
28389.4
38189.7
46641.5
52426
55839.6
57393.5
84752.9
84290.3
84420.6
84411.5
84090.2
83412.3
83791.2
22198.5
24044
37056.8
46216.6
52266.3
55746.1
57332
84677.4
84186
84336.8
83326.2
83695.5
82819.4
82894.7
2291.71
22628.8
36580.9
46092.6
52226.1
55743
57313.4
84610.2
83968.7
82771.7
82761.3
82508.1
82276.3
82242.5
2300.31
22451.5
36543.1
46333.7
52417.1
55780.1
57299.5
84546.2
83885.3
82480.1
80459.5
80374.1
78842.4
80848.4
2282.24
23414.6
37631.4
46979
52415.4
55774.1
57315.7
84508
83844.1
82448
80206.1
79882.1
78560.1
80930.5
2300.42
24847
38757.4
46859.2
52440.2
55794.8
57349.3
84486.6
83818.2
82424.4
80175.7
79808.5
78515.8
80949.6
2302.63
24979.7
38718.4
46869.2
52465.7
55818.3
57377.1
84469.2
83801.6
82405.5
80149.8
79742.1
78502.7
80974.8
2293.15
25076.8
38754.1
46862.1
52477.1
55828.7
57385.9
80358.4
79146.2
76590.4
72074.6
69608
61576.9
56868.4
3028.09
2297.25
25040.2
37575.9
45794.7
51459.2
54836.1
56460.8
80338.5
79125
76565.5
72046.6
69575.5
61533.4
56814.9
2934.45
2299.12
24763
37440.3
45723.7
51370.2
54762.5
56389.3
80327.8
79122.2
76556.6
71998.5
69579.2
61506.1
56807.7
2435.06
2294.7
20900.6
37398.5
45592.7
51247.2
54650.5
56275.3
80339.2
79155.8
76539.1
72075.6
69660.8
61561.8
56976.2
2265.52
2297.68
21336
34701.3
45509.4
51092.3
54516.9
56136.2
80398.8
79229.8
76644.5
75197.4
69772.5
65041.2
59569.8
2345.45
2327.16
19612.8
33521.5
43733
50897.7
54389.2
55986.8
80460.6
79338.8
78635.6
75380.6
72213.5
67365
61278.6
3235.96
2359.78
20787.7
33064.1
43427.3
49659.9
54148.7
55822
80488.9
79386.6
78715
75535.3
73532.1
68899
65506.1
1739.66
2316.78
17854
32397.3
42277.5
49369.9
53924.4
55644.4
80472.2
79385.8
78718.4
76851.4
73776.7
69545
67269.5
27480.4
2225.37
14135.3
31025.5
41406
49093.8
53782.7
55515.1
80433
79317.7
78655.5
76766.2
73530.7
68561.2
63250.8
3653.37
2254.16
13379.1
30294.9
41065.4
48990.8
53738.9
55478.9
80357.8
79225.2
78569.4
75223.4
73071.9
67427.2
61056.8
2334.97
2277.99
16859.4
30731.4
41565
49079.8
53826.9
55525.5
80259.1
79080.1
76473.1
75107.5
71716.2
66483.6
59690.8
2288.03
2301.12
18170.4
31472.2
42782.9
50400.9
53971.2
55599.9
80174.8
78987.5
76364.5
71891.3
69462.3
61410.4
56915
2268.94
2299.22
19555
33976.9
44952.7
50575.7
54067
55700.2
80136.1
78932.9
76371
71823.1
69375
61327.5
56698.5
2307.16
2297.01
20909.4
36907.8
45078.8
50737.1
54161.3
55796.8
80119.7
78913.4
76369.9
71879.1
69426.7
61412.9
56751.1
2694.81
2296.12
24207.9
36932.3
45167.5
50824.8
54235.7
55865.7
80106.7
78903.5
76367.7
71889.9
69442.5
61498.6
56889.5
2564.19
2295.91
24406.1
36997.7
45186.2
50870.8
54262
55892.1
77574.1
75965.4
72528.6
66398.3
55717.7
45256
19373.5
2306.07
2331.11
27915
39947.3
47700.9
52879.5
55966.8
57442.4
77535.2
75920.5
72460.3
66308.5
55572.8
45093.1
19393
2267.07
2303.23
27475.7
39661.7
47520.4
52729.9
55851.2
57337.5
77489.7
75871.8
72385.5
66197.3
55350.6
44680.3
19210.6
2264.49
2301.77
22088.8
39223.9
47224.7
52484.3
55655.3
57159.3
77451.6
75855.2
72290.8
66138.7
59824.7
44423.3
19333.8
2291.71
2297.97
21834.4
34996.8
46796.4
52135.6
55373.3
56916.9
77460.7
75889
72379.4
68858.3
60047.8
48731.4
26279.4
2286.64
2356.7
18649.9
32761.4
43645.8
51692.5
55072.6
56645.2
77488.7
75916.5
74092.4
69026.7
62727.4
51672.8
28441.5
2248.62
2298.51
18145.9
31056
42867.3
49454.1
54729.3
56372.6
77484.8
75919.2
74209.1
69183.1
64278.8
53654.7
35686
2282.47
2286.52
14354
29312.2
40794.4
48954.8
54437
56141.2
77462.9
75911
74236.8
70628.7
64590.4
54975.4
46654.1
2471.02
2381.35
8734.17
27441.1
39481.8
48636.9
54279.8
56010.3
77436.1
75867.6
74192.7
70571.9
64438.6
54064.5
32994.5
2287.45
2340.67
3069.57
27032.2
39318
48627.1
54294.1
56012.3
77397.9
75828.2
74118.1
69008.8
64043.5
53066.1
34602.1
2233.78
2291.66
14397
28744.9
40572.2
48909.5
54474.9
56137.6
77336.5
75763.1
72252.5
68902.2
62450.5
51334.7
27920.8
2275.62
2294.37
17283.4
30441.5
42805
51318.7
54731.6
56310.6
77303.5
75712.2
72167.2
66039
59807.9
44499
21067.7
2256.19
2295.71
19351.1
34400.5
46331.5
51703.4
54962.7
56506.2
77312.8
75704
72237.2
66094.1
55276.3
44508.3
19204.9
2254.42
2302.31
21680.3
38787
46746.6
52003.4
55177.8
56689.6
77329.7
75727
72294.3
66189.6
55520.6
44917.6
19290.3
2258.9
2301.54
26859.9
39154.5
46963.4
52188.1
55318.1
56809.1
77334.7
75739.8
72334.1
66262.3
55663.2
45237.5
19452.1
2255.33
2301.52
27204
39323.4
47077.3
52283.9
55382.7
56864.5
77018.9
75397.1
71908.2
65797.2
55232.8
42716.5
7567.32
2295.52
12865.9
36413
46473.7
52831.2
56989.5
59423.5
60582.1
76951.6
75318.2
71784.1
65600.6
55012.3
42102.6
7110.71
2247.74
9855.85
35606.7
45938.5
52521.1
56770
59262.6
60443.1
76855.6
75205.6
71609.2
65325.7
55075.2
40709.6
8636.89
2295.46
2309.27
27307.1
45283.4
52052.5
56395.8
58982.6
60203.4
76751.1
75107.9
71446.7
65186
56925.6
39918.3
10146.8
2268.04
2298.95
26395.3
39739.3
51376.4
55880.6
58598.2
59881.8
76688
75064.8
71477
66616
56713.1
42476.9
19248.1
2286.51
2305.57
21361.6
36288.7
47260.3
55270.5
58169.2
59520.4
76654.9
75050
72332.9
66558
58311
44058
20258.5
2208.99
2299.24
19517.9
33391.1
46019.3
52303.7
57766.5
59175
76605.8
74999.1
72350.5
66575.5
59223.7
44573.5
19498.1
2291.68
2259.21
14154.9
30937.6
43185.4
51631.2
57425.1
58904.7
76577.3
74974.9
72371.8
67595
59444.1
45445
19922
2266.58
2295.03
9169.12
28834
41478.7
51287
57263.7
58770.9
76568.8
74967.8
72366
67599.7
59502
45940.1
23975.5
2302.89
2386.62
5876.14
28753.1
41484.9
51360.8
57324.1
58799
76579.8
74986.9
72333.2
66600.2
59367.2
45643.2
24646.9
4868.17
2297.18
15828.1
31174
43391.7
51793.7
57577.3
58979.3
76580.5
74966.9
71408.7
66640.8
58355.4
44359
20244.5
2257.17
2297.76
19945.4
33593.9
46469.7
55000.3
57880.2
59224.1
76614.7
74983.9
71355.5
65149.4
56790.5
40217.7
18236.5
2300.02
2298.22
22926.6
38977.3
51028.3
55507.7
58216
59495.2
76686.2
75051
71484.8
65267.8
55067.1
40287.5
8977.46
2291.38
2308.48
26533.8
44863
51587.8
55931
58514.6
59736.4
76749.9
75132.4
71633.5
65522.1
55011
42224
7310.34
2262.41
7590.22
35041.1
45310.4
51926
56218.5
58720.9
59907.7
76781.4
75177
71725.3
65700.4
55224.4
42901.1
7385.31
2214.38
8087.49
35387.1
45591.4
52133.4
56368.7
58822.7
59991.7
78878.1
77733.1
75320.6
71448.1
63443.7
54326.2
24815.5
2337.15
40441
53769.4
57537
61160.9
63409.8
64745.1
65406.7
78782.1
77615.1
75136.1
71085.4
62854.4
53297.7
19759.6
2329.64
38167.5
52984.6
56884.6
60757.1
63142.7
64554.9
65246.9
78633.8
77431.9
74850.2
70444.3
63959.9
49520.6
19986.7
3387.68
19479
41535.9
56309
60127
62679.3
64226.7
64970.6
78461
77223.1
74501.8
69959.7
62291
47551.7
18408.1
2328.62
2307.24
38502.1
49577.9
59282.8
62054.5
63788.1
64607.4
78321.4
77057.7
74315
69506.3
61177.4
47037.9
22614.7
2313.86
6059.05
30196.2
45090.8
54475.5
61392
63303.1
64209.5
78217.6
76963.4
74052.4
68991.3
60850.9
46682.4
23902.3
9146.26
5816.12
26306.7
40916.2
53048.1
57924.3
62897.7
63844.7
78119.7
76848.1
73883
68742
60718.1
45943.1
20549.2
2298.96
2240.13
19016.3
37512.8
49640.3
57214.8
62557.9
63564.1
78077.8
76801.2
73833.1
68957.6
60634
46441.9
29337.3
2298.07
2295.12
11401.8
35154
47654.9
56892.7
62404.1
63430.5
78084.4
76817.2
73851
68972.2
60683.7
46329.5
22132.5
2318.52
2287.33
13710.2
35782.6
47829.6
57010.9
62476.4
63463.4
78144.4
76903.1
73919.9
68892.1
60867.1
46393
21034.7
2293.5
7493.58
23115.4
38809.6
50148.2
57485.3
62729.6
63662.3
78213.2
76960.6
74254.1
69244.8
61078.8
47060.4
23836.3
4252.22
10791.8
28426.4
41811.2
53755.9
61145.8
63021.4
63918.8
78319.5
77097.5
74415.5
69949.8
61730.1
47318
22007.5
2334.35
2318.64
33037.8
48641.7
58949.4
61681.8
63402.1
64217.9
78455.4
77271
74728.2
70415.4
64092.6
48819.7
19428.3
2419.07
18173.2
39835.6
55845.1
59643.7
62199.9
63745.1
64492.5
78567.2
77418
74976.9
71012.2
62962.6
53273.1
22973.9
2329.1
39035.6
52879.6
56239.6
60156
62568.7
63991.4
64694.2
78625
77498.7
75124.2
71349.1
63577.7
54275.9
29255.7
2331.86
40920
53591.7
56684.8
60461.4
62761.3
64118.9
64796.1
82610.3
82277.4
81687.3
81955.8
82017.6
90627.3
130672
135429
100648
79597.8
72989
71931
71304
71223.7
71266.2
82495.1
82126.6
81464.6
81485.3
81210.4
89564.3
129764
122938
95377
78149.1
72151.6
71441.7
71022.3
71026.3
71103.8
82304.1
81870
81078.9
80028
80196.6
74569.3
83320.2
75869.4
68433.5
67624.9
70791.5
70490.5
70510.3
70683.6
70820.3
82070.7
81556.2
80497.8
79086.8
74584.8
69182.1
58039.8
19359.7
37708.3
63444.3
65124.9
69399.9
69837.5
70238.3
70452.9
81863.2
81275.1
80082.9
76620.6
72787.2
63791.7
42277.2
3761.9
24904.9
51333.5
59962
65057.1
69133.9
69751.2
70061.3
81701.9
81087.8
78611.1
75809.7
70236.4
60054.1
36754.8
2290.52
18132.3
43942.6
54962
63672.4
65873.3
69335.2
69723.1
81563.6
80921.1
78262.7
75367.5
68962
57755.8
29327.2
2198.22
2269.5
33385.3
51105.2
60126.5
65221.5
69027.2
69460.5
81509
80854.1
78142.7
74582.4
68499.6
57036.1
29949.3
3403.19
2341.35
24515.2
48829.3
58093.4
65001.7
68889.4
69334.2
81521
80877.3
78165.1
74595.3
68506.8
57003.5
30235.1
2300.7
2220.64
28705.8
49747.3
58295.8
65079.4
68930.9
69357.2
81613.7
81005.4
78328.5
75544.4
69032.1
58149.1
32494.3
2281.8
8540.78
38911.5
52680.3
60611.4
65435.4
69131.2
69514.6
81733.7
81150.6
79980
76069
70559
60608.5
37637.5
2282.45
20203.5
45984.2
55856.7
64228.8
68814.5
69431.9
69742.1
81903
81401.5
80377.1
79043.4
73672.9
68171.9
45309.2
3419.54
25689.8
55177.2
63786.5
68955.2
69403
69812.8
70033.7
82095.5
81678
80927.2
79981.1
80401
71903.1
70568.6
62715.9
60770.8
64888.8
70184.7
69942.2
69979.8
70165
70312.6
82244.4
81890.5
81255.4
81305.6
81270
88544.7
130313
117686
94473
77292.6
71421.2
70815.4
70408.9
70429.6
70522.3
82318.8
82000.7
81435.2
81720.2
82087.7
89306.8
129631
131931
98664.6
78588.8
72132.6
71234.3
70627.7
70568.3
70628.5
87056.3
87486.6
88361.7
91501.5
96707.7
102102
126534
126462
111952
94664.2
86271
81878.9
79010.5
77803.1
77297.3
86952
87350.7
88222.1
91322.7
96562.6
103097
130556
139730
112429
94609.8
85809.8
81511.5
78784.9
77628.3
77153.4
86761.2
87060.7
87933.2
89869.9
95112.5
99783.8
122545
151920
119233
94176.7
84359.4
80516
78323.5
77304.6
76894.5
86510.6
86717.3
87275.7
88779.3
89526.8
97706
121834
166033
122271
91748.9
81889.4
79282.9
77686.8
76888.6
76557.1
86273
86385.1
86676.7
85730.8
87244.3
89654
101288
189578
109375
84440.6
78212.4
76548.5
76979.7
76429.4
76192.5
86094.5
86076.6
84736.6
84762.7
83979.2
84013.5
88309.1
125793
82933.1
76396.6
74273.3
75411
74722.8
76001.6
75884
85944.7
85882.7
84403.1
84204.9
81933.3
81623.8
83758.7
108825
46266.1
68636.7
71664.8
73137.7
74260.5
75722.7
75650.2
85883
85813.4
84264.7
82851.9
81325.4
80056.8
77072.5
25812
34718.6
66805.6
70652.1
71713.4
74024.6
75595
75532.4
85887.6
85825.1
84273.1
82833.7
81222.9
79525.5
73721.1
43233
46711.3
68912
71031.2
71767
74028.3
75595.5
75526
85979.9
85963.4
84437.8
84282.5
81760
80928.1
78605.5
75347.9
70391.3
72050.8
72281.3
73212.8
74252.4
75746.1
75635.6
86106.5
86213.3
86505.9
85054.8
84148.1
84117.3
89143.2
123606
80231.1
76793.9
74382.4
75453.7
76555.3
76045.6
75827.2
86298.4
86509.4
87080.6
88624.8
88663.9
95604.1
110430
193936
109406
85891.4
80061
78669.1
77151.1
76401
76092
86502.4
86811.1
87708.5
89706.4
95106.8
99274
123855
157585
118609
92696.8
83533.7
79828
77706.1
76731.8
76344.7
86644.2
87046.7
87930.7
91005.2
96520.9
102558
131259
140991
111422
93440.1
84953
80759
78100.3
76985
76534.2
86704.7
87137.4
88028.5
91105.7
96634.9
101686
126715
129961
110045
93601.7
85357.6
81073.9
78274.5
77106.8
76625.4
90930.3
91647.4
92789
95283.4
100003
99156.4
103918
107478
102356
96220.4
91793
87873.4
84844.3
83356.8
82612.6
90882.3
91599
92825.8
95609.6
100482
100827
105971
110329
103541
97278.6
92048.3
87860
84770.8
83252.9
82515
90775
91415.4
92889.2
95434.7
99953.3
102999
108797
118681
107169
99011.6
91586.2
87457.1
84552
83025.9
82328
90597
91195.1
92546.8
95302.9
97462.6
104788
115791
130449
115959
99874.3
91528.9
86888.4
84185.7
82719.9
82073.2
90392.9
90917.6
92152.5
92931.5
96889.8
103208
117800
140270
121585
101592
90818.9
85716.9
83715.3
82349.8
81774
90212.3
90561.6
90623.4
92298.4
94708.4
101263
117364
149217
124828
101067
90061.1
85279.2
82510.3
81938.2
81499.8
90074.9
90376.5
90412.9
91933.2
93542.8
100876
121108
120535
128199
102012
89863.2
84547.3
82239.8
81705.7
81301.2
90013.9
90300.1
90294.7
90855
93194.5
100284
118808
164672
143215
104591
90006.7
84068
82021
81578
81191.3
90000.3
90296.1
90275.5
90801.1
93051.2
99692.7
116427
156419
135870
103382
89582.5
83881.2
81934.1
81544.9
81153.2
90066.9
90409.3
90357.9
91853.8
93240.1
99856.4
115980
149896
124747
100183
88974
84039.7
81986.5
81629.3
81212
90182.2
90687.9
91898.5
92322.4
94536.6
100770
116905
149881
121325
99327.1
89065
84744.3
83165
81896.2
81361.6
90328.9
90916.7
92248.3
94936.3
96803.8
104393
116898
138399
118862
99557.3
90101.7
86119.7
83550.3
82171.7
81562.2
90451.8
91083.6
92540.2
95039.4
99506.8
103410
110749
121819
107122
98207.5
90642
86646.3
83856.7
82400.1
81736.7
90504.3
91207.4
92420.7
95119.7
100067
100332
104999
109429
101986
96254.3
91108.2
86998.7
84023.6
82562.7
81858.7
90506.5
91206.9
92346.5
94732.3
99497.5
98809.3
102395
105842
100108
95259.1
90802.2
86971.2
84052.3
82617.9
81906.3
93611.6
94206.1
95014.6
95921.4
98877.4
98123.1
98939.4
103573
97828.8
95491.7
93185
90706.2
88577.9
87410.8
86729
93629.5
94247.5
95128.4
96395.7
99419.4
99008.7
100053
101831
98811.6
96350.5
93631
90903.6
88634.7
87391.7
86692.8
93652.5
94232.4
95415.7
97032.2
99897.6
101466
104888
109089
104026
98495.9
94068.4
91061.9
88682.7
87310.9