/*--------------------------------*- C++ -*----------------------------------*\
| =========                 |                                                 |
| \\      /  F ield         | OpenFOAM: The Open Source CFD Toolbox           |
|  \\    /   O peration     | Version:  v2012                                 |
|   \\  /    A nd           | Website:  www.openfoam.com                      |
|    \\/     M anipulation  |                                                 |
\*---------------------------------------------------------------------------*/
FoamFile
{
    version     2.0;
    format      ascii;
    class       volScalarField;
    location    "0.048";
    object      p_rgh;
}
// * * * * * * * * * * * * * * * * * * * * * * * * * * * * * * * * * * * * * //

dimensions      [1 -1 -2 0 0 0 0];


internalField   nonuniform List<scalar> 
449343
(
106213
106324
106502
106650
106662
106293
105379
103847
101759
99334.7
96873.6
94655.9
92876.5
91646.3
91020.2
106216
106327
106505
106653
106664
106293
105377
103845
101758
99335.4
96875.2
94657.1
92876.5
91645.2
91018.5
106222
106333
106511
106658
106667
106292
105373
103840
101755
99335.6
96877.8
94659.3
92876.4
91643
91015.1
106229
106341
106519
106664
106669
106287
105364
103829
101747
99333.1
96880.5
94662
92876.1
91639.6
91010
106237
106349
106526
106670
106669
106280
105352
103814
101736
99328.7
96883
94664.8
92875.2
91634.9
91003.2
106243
106355
106533
106675
106669
106272
105339
103800
101726
99325.1
96884.4
94666.3
92872.8
91628.5
90994.7
106246
106358
106536
106677
106665
106264
105327
103786
101716
99321.4
96882.7
94665.6
92867.8
91620
90984.5
106244
106357
106534
106675
106660
106257
105315
103772
101701
99311.7
96874.3
94656.9
92857.7
91608.6
90972.6
106239
106351
106527
106668
106654
106251
105313
103770
101696
99299.3
96858.9
94641
92843.1
91595.1
90959.6
106229
106341
106517
106658
106647
106247
105310
103767
101688
99283.4
96840.1
94620
92825.3
91580.6
90946.7
106217
106328
106504
106645
106640
106245
105311
103767
101683
99269.9
96820.2
94599.3
92808.2
91567.1
90935.2
106204
106315
106491
106633
106632
106245
105315
103772
101683
99261.8
96804
94581.8
92793.7
91556
90926
106194
106304
106479
106622
106626
106244
105317
103776
101683
99255.5
96791.6
94568.6
92782.9
91547.9
90919.3
106186
106296
106471
106614
106620
106242
105318
103777
101681
99250.2
96783.2
94560
92776
91542.7
90915.1
106181
106291
106466
106610
106617
106240
105318
103777
101680
99247.1
96778.9
94555.8
92772.6
91540.2
90913.1
106087
106246
106525
106820
107019
106866
106080
104475
102125
99353.6
96589.4
94171.5
92282.1
90999.2
90352.7
106091
106250
106529
106824
107022
106867
106078
104473
102124
99355.8
96592.6
94173.3
92282
90997.5
90350.4
106097
106257
106537
106831
107029
106868
106074
104469
102123
99360.8
96599.8
94177.5
92281.7
90994.2
90345.6
106106
106266
106547
106842
107033
106862
106060
104449
102111
99360.9
96608.9
94183.5
92281.4
90989.3
90338.6
106115
106277
106559
106853
107039
106848
106040
104427
102082
99360.5
96621.7
94191.3
92280.7
90982.8
90329.5
106122
106285
106569
106863
107045
106841
106023
104409
102074
99360.4
96631.4
94198.3
92278.9
90974.6
90318.6
106126
106290
106575
106869
107041
106837
106012
104395
102064
99365.5
96650.8
94205.9
92274.5
90964.9
90306.6
106125
106289
106574
106869
107037
106830
105996
104330
102041
99352.3
96643.1
94197.5
92263.3
90952.5
90293.4
106119
106282
106567
106860
107029
106824
105997
104379
102042
99340.5
96623.6
94178.7
92247.6
90938.1
90279.9
106108
106270
106553
106846
107022
106815
105992
104373
102032
99314.6
96583.3
94147.8
92227.5
90923.2
90267.4
106094
106256
106536
106828
107008
106812
105997
104376
102023
99295.9
96552.6
94120.1
92208.6
90910.5
90257.3
106081
106240
106519
106810
106996
106819
106009
104389
102043
99284.5
96526.6
94097.6
92193.7
90900.8
90250
106069
106228
106505
106796
106987
106819
106017
104402
102047
99275.5
96508.2
94081.4
92183.1
90894.3
90245.2
106060
106218
106495
106786
106978
106816
106018
104403
102044
99266.7
96495.9
94071.3
92176.7
90890.4
90242.4
106055
106213
106490
106780
106974
106814
106018
104404
102043
99262.5
96490.4
94066.8
92173.7
90888.6
90241.2
105758
106026
106536
107197
107849
108268
107865
106077
103028
99348.5
95841.5
92970
90842.9
89448.3
88759.8
105762
106031
106542
107204
107856
108272
107865
106076
103029
99355.2
95848.4
92973
90842
89445.2
88755.8
105770
106041
106555
107220
107871
108279
107858
106075
103032
99373.7
95866.9
92980.6
90840.5
89439
88747.7
105781
106054
106572
107241
107889
108272
107827
106054
102993
99382.9
95897
92994.2
90838.7
89429.8
88735.8
105793
106069
106593
107266
107908
108248
107739
105956
102913
99417.2
95934
93011
90837.2
89418.2
88720.7
105804
106084
106614
107290
107937
108225
107708
105936
102905
99438
95978.9
93030.7
90833.8
89404.8
88703.6
105809
106092
106624
107305
107930
108229
107692
105916
102890
99448
96092.2
93054.7
90830.9
89390.5
88686.2
105809
106093
106625
107308
107934
108234
107703
105963
102865
99431.5
96077.5
93044.7
90817.9
89375.5
88669.8
105802
106084
106615
107295
107918
108214
107672
105892
102862
99416.4
96057.1
93021.7
90799.1
89359.1
88655.1
105789
106068
106597
107270
107912
108197
107674
105895
102853
99381.6
95918
92968.4
90772.2
89344.5
88644.3
105772
106047
106569
107238
107876
108210
107690
105896
102840
99338.6
95849.9
92925.4
90752.2
89334.6
88638
105756
106028
106543
107208
107850
108227
107771
105986
102911
99293.1
95799.3
92893.5
90737.5
89329.1
88635.5
105742
106011
106523
107184
107828
108229
107797
106001
102945
99275.3
95761.2
92870.7
90728.8
89326.7
88635.4
105732
106000
106508
107166
107811
108220
107802
106001
102941
99255.7
95739.7
92858.5
90724.4
89326.1
88636.2
105726
105994
106501
107158
107803
108216
107802
106001
102939
99248.2
95731.7
92853.7
90722.8
89326.1
88636.9
105094
105522
106377
107624
109126
110643
111350
109209
104630
99051.7
94291.1
90795.8
88392.1
86888.4
86167.6
105099
105528
106386
107637
109140
110655
111345
109211
104633
99066
94302.6
90798.1
88388.4
86882.2
86160.4
105109
105541
106405
107666
109175
110682
111346
109232
104670
99121.5
94337.2
90805.5
88381.5
86869.8
86146.1
105122
105559
106434
107711
109218
110711
111188
109242
104557
99225
94412.4
90821
88371.3
86851.2
86125
105137
105580
106469
107757
109281
110684
110404
108972
105418
99398.6
94509.1
90850.3
88358.2
86826.7
86098
105150
105602
106513
107843
109381
109891
110314
108941
105451
100696
94634.4
90885.1
88346.6
86798.2
86067.8
105158
105615
106538
107862
108726
109918
110281
108893
105405
100703
95979.9
90903.8
88324
86771.2
86039
105158
105620
106548
107873
108732
109934
110300
108790
105385
100696
95945
90889.3
88315.9
86754.1
86015.7
105149
105606
106528
107851
108719
109913
110267
108854
105369
100671
95931.3
90863
88283.6
86731.4
86000.4
105134
105585
106494
107820
109353
109875
110257
108862
105360
100643
94544.4
90799.5
88265.6
86722.3
85994.6
105114
105556
106443
107727
109244
110643
110338
108899
105365
99298.5
94396.6
90738.6
88251.2
86723.9
85997.7
105096
105531
106403
107676
109175
110664
111123
109158
104449
99104.7
94285.6
90693.9
88247.1
86730
86005.5
105080
105511
106372
107628
109129
110632
111280
109147
104566
99001.1
94207
90672
88248
86737.3
86014.6
105069
105496
106352
107599
109095
110606
111280
109129
104532
98948.7
94173.8
90663.1
88250.8
86743.8
86022
105063
105490
106343
107587
109081
110595
111286
109128
104533
98937.4
94164
90660.9
88253.1
86747.7
86026.3
103888
104491
105747
107745
110533
114053
117668
114735
107037
97685.3
91224.3
87243.3
84735.1
83255.2
82575
103893
104498
105758
107762
110557
114078
117671
114747
107064
97720.7
91239.2
87239.8
84725.1
83243.7
82563.1
103902
104512
105781
107804
110627
114151
117701
114779
107151
97803.4
91277.2
87233
84704.4
83220.4
82539.1
103915
104531
105819
107898
110820
114291
115434
114895
108836
98262.3
91441.5
87239.7
84671.5
83184.3
82502.9
103929
104553
105870
107986
110912
112821
115401
114819
108898
100617
91587.6
87230.6
84624.4
83133.1
82455.6
103942
104584
105950
108201
110060
113009
115411
114676
108812
100846
93862.9
87288.5
84555.7
83079.7
82403.4
103946
104590
105971
107629
110148
113115
114494
114012
109200
101878
94017.8
89155.2
84436.2
83008.7
82350.2
103949
104601
106038
107650
110196
113150
114506
113981
109199
101883
94050.7
89186.3
84521.2
82975.5
82321.3
103937
104580
105960
107624
110169
113128
114473
113970
109153
101850
94004.2
89146.9
84378.8
82955.4
82300.5
103924
104564
105927
108175
110040
112994
114533
113967
109126
100797
93829.1
87162.2
84445.6
82981.1
82310.3
103904
104527
105840
107952
110872
112828
115313
114598
108665
100583
91420
87073.1
84482.5
83002.4
82330.7
103888
104502
105787
107861
110775
114239
115353
114789
108804
98087.3
91265.8
87071.7
84513.4
83034.5
82357.4
103873
104481
105748
107767
110582
114101
117633
114722
107022
97644.5
91109.9
87066
84540.7
83060.7
82382.2
103863
104467
105725
107727
110516
114032
117608
114673
106948
97577.9
91082.4
87077.3
84561
83080.2
82400.4
103858
104461
105715
107710
110493
114010
117610
114662
106932
97554.8
91075.1
87084.4
84571.9
83090.6
82410.2
101883
102615
104197
106914
111232
118028
123481
128551
114418
92888.3
85431.4
81769.1
79627.9
78489.2
78003.5
101886
102620
104206
106933
111270
118066
123506
128560
114436
92917.3
85432.1
81749.1
79607.7
78470.7
77985.7
101892
102629
104224
106961
111333
118164
123544
128581
114443
92913.9
85396.1
81688.4
79560.8
78431.1
77949.3
101899
102645
104264
107073
111808
116037
123689
128677
114442
97503.4
85466.6
81549.9
79479.8
78370.2
77893.8
101901
102650
104286
107203
110602
116373
123963
126291
115873
98180.2
88769.6
81382.2
79306.7
78269.4
77818.1
101908
102656
104381
106772
110736
115425
122225
125194
115814
100496
88874.4
83789.5
79115.7
78145
77732.4
101900
102640
104387
106834
110880
115498
121322
125180
116307
101431
90596.8
83785
78950.8
78023.9
77647.7
101891
102620
104350
106902
110238
114971
121341
125136
116232
101431
90532.6
83728
80898.3
77941
77602.9
101889
102627
104371
106858
110217
115461
121324
125113
116194
101381
90476.7
83643
78851.7
77950.1
77582.5
101886
102632
104351
106740
110814
115464
121255
125123
116208
101290
90480
83652.7
78963.5
78016.1
77612.7
101874
102620
104250
107161
110579
116380
122046
126082
115651
100141
88643.4
81148
79113
78101.4
77662.8
101870
102615
104229
107031
111758
116050
123673
128572
114260
97441.1
85219.4
81321.4
79276.1
78183.4
77716.1
101863
102598
104190
106925
111290
118113
123522
128483
114277
92687.6
85177.3
81476.4
79358.5
78238.1
77761.4
101859
102591
104176
106902
111236
118024
123470
128485
114308
92736.3
85239.2
81552.7
79411.8
78277.3
77794.4
101857
102587
104169
106885
111201
117992
123463
128492
114325
92743.9
85257.5
81582.6
79436.8
78296.8
77811.5
98850.5
99563.2
101156
104066
109041
115872
132346
161944
118117
85027
74916.8
73645.8
72916.6
72677.7
72611.2
98850
99563.2
101158
104070
109057
115886
132344
161940
118082
85025.1
74872.4
73595.4
72885.1
72652.8
72588.5
98845.7
99556
101147
104037
108995
115897
132302
161923
118159
85042.6
74757.2
73490.1
72812.7
72597.2
72541.4
98837.9
99547.4
101136
103890
108379
116303
132349
161827
117894
85084.4
78130.4
73109.1
72677.2
72505.2
72469
98813.7
99507.1
101027
103974
108489
115467
129420
161700
118762
88971.3
77773.1
75271.6
72367.6
72365.6
72367.8
98784.5
99412
101463
104093
108261
115523
128056
156690
123552
90922.6
79980.1
75066.8
74002.2
72180
72255
98770.1
99395.2
101482
104127
108339
115109
128004
156607
123455
90855.4
81178
76532
73868.7
72092
72166.6
98739.9
99364.8
101541
104151
108343
115095
127981
156564
123370
90741.5
81053.1
76414.7
73794.3
72043.6
72094
98756.5
99379.5
101484
104149
108342
115077
127961
156553
123273
90602.4
80940.6
76323.2
73697.1
72001.9
72084.2
98757.6
99379.3
101455
104053
108299
115053
127958
156568
123216
90510.9
80875.9
76298.5
73730.3
72013.7
72104.3
98784.4
99475.2
100981
103949
108470
115471
128010
156653
123284
90527.7
79713.4
74837.9
72102.2
72150.3
72173.3
98808.9
99513.8
101097
103842
108253
116225
129330
161684
117654
88884.8
77646.4
72801.5
72416.3
72275
72253.7
98817.9
99526.8
101115
104004
108962
115879
132300
161820
117746
84730.5
74473.8
73224.1
72567.4
72367.3
72319.7
98825.8
99538.4
101132
104044
109036
115890
132324
161905
117919
84823.9
74638.5
73361.3
72653.7
72427.1
72366.5
98828.1
99540.8
101135
104047
109027
115865
132343
161930
118007
84877
74720.2
73429.9
72694.3
72455.5
72390.4
94714.9
95151.2
96121.9
97909.1
100855
107569
115112
113114
25271.1
54454.7
59951.3
63107.7
65070.7
66297.1
66854.4
94712.8
95147.8
96117.9
97900
100857
107560
115107
113045
24290.5
54425.8
59861.3
63062.4
65045.6
66272.4
66831
94700.5
95127.9
96093.9
97887.8
100816
107525
115075
113011
25337.8
54522.6
59806.4
63025.3
64998.5
66224.4
66786
94679.5
95085.4
96042.3
97692.7
102107
107221
114930
113008
25188.7
54621.2
61198.5
63063.5
64939.1
66149.5
66722.5
94635.5
95018.8
95910.1
98853.3
102011
107723
115797
112993
25190.8
57961.1
62754.3
64341.4
64940.9
66083.2
66641.8
94567.4
94937.6
97022.5
98843.4
102533
108057
115767
112876
24776.3
58412.6
63760.8
64450.2
65973.1
66052.6
66555
94557.1
94922.4
97054
98835.6
102820
108102
115794
112907
25665.6
58669.6
63899.8
65324.5
65874.7
66011.8
66492.2
94538.6
94890
97036.7
99405.4
102843
108109
115799
112893
24808.6
58383.9
63760.2
65688.1
65826.6
65971.5
66424
94540.3
94901
97013.3
99374
102811
108064
115749
112873
24310.5
57942.2
63482.4
65516.8
65694.7
65888.4
66389.8
94539.5
94902
97003.2
98750.6
102735
107993
115681
112844
24259.6
57642.6
63234
64893.2
65611.1
65843.1
66372.5
94603.1
94979.3
95850.3
98769.5
102430
107936
115657
112857
24174.2
57502.9
63007.8
63855.5
64605.5
65819.1
66407.3
94649.9
95051.7
96001
97634.7
102003
106916
114686
113071
23973.6
55808.4
60588
62672.3
64620.9
65878
66470.7
94676.7
95102.8
96067.4
97861
100784
107326
114975
113086
23706.1
54026.9
59441.4
62710.7
64711.8
65959.7
66532.6
94693.8
95129.1
96099.8
97882
100850
107544
115106
113121
24251.6
54180.5
59612.2
62791.4
64779.7
66016.1
66580.2
94700
95137.1
96111
97905.5
100862
107577
115143
113148
24224.4
54303.6
59739.1
62864
64818.8
66046.8
66606.3
89734.7
89647.6
89445.7
89132
89088.1
93099.3
96895.8
110161
5429.82
33146.2
46258.6
53220.2
57755
60391.9
61572.4
89733.9
89646.9
89449.5
89138.6
89117
93101
96898
110000
3448.48
33168.9
46195.1
53221.1
57743.5
60370.9
61551
89730.2
89642.1
89454.3
89197.9
89173.5
93099
96903.6
109996
3272.5
33226.1
46240.5
53242.3
57732
60344.5
61516.4
89723.5
89616.8
89443
89364.7
92015.9
93221
96876.4
110036
2424.25
33505
46472.7
53496.5
57764.7
60325.5
61480.2
89708.9
89598
89528.8
91437.6
92268.6
95287.6
98241.6
110308
3321.61
33604.9
47305.4
54303.6
57886.2
60349.1
61451.7
89679.4
89652.6
91114.5
91523.5
93681.5
96359.6
98482.1
110277
2274.49
34665.3
48044.8
54416.8
58498.5
60347.8
61413
89688.7
89670.9
91119.8
91601.2
94446.7
96524.9
98744.2
110529
2115.33
35896.2
48370.9
54788.1
58428
60288.4
61352.8
89680.2
89653.9
91094.8
92579.3
94456
96574.2
98825.1
110591
2371.3
35384.7
48041.6
54787.7
58280.7
60220.6
61276.5
89671.7
89648.3
91059.3
92525.7
94385.5
96448.6
98643.2
110464
3965.98
34033.7
47406
54495.5
58138.7
60126.5
61228
89648.3
89610.4
91027.6
91473.3
94263.8
96244.2
98357.5
110216
2347.07
33239.2
46961.8
54067.3
58078
60079.2
61196.8
89676.8
89558.2
89462.8
91352.3
93489.2
96094
98133.6
110013
2420.24
32944.6
46742.1
53597.4
57462.7
60036.6
61180.1
89697.2
89585.1
89400.7
89304.1
92048.8
93331.8
97079.4
110198
2407.2
32942.3
46140.6
53047.8
57400.8
60022
61201.5
89712
89621.6
89426.8
89161.9
89141.1
93086.1
96854.8
110014
2518.99
33037.2
45879.8
52901.9
57416.8
60054.6
61239.3
89723.9
89637.9
89443
89138.9
89127.6
93101.8
96919.4
110047
2417.66
33003.5
45915.8
52915.8
57449.6
60090.7
61277.6
89729.4
89645.2
89450.3
89148.7
89120.8
93139.4
96955.9
110078
2657.66
33031.7
46015.2
52950.2
57476.4
60118
61302
84598.5
83925.8
82517.9
80239.5
79826.2
78535.4
80966.3
2165.91
25339
39162.2
47293.7
52911.8
56256.7
57808.8
84602.3
83930.5
82529
80262.8
79838
78547.7
80975.9
2201.36
25318.1
39122.2
47299.3
52889.2
56227.3
57780.5
84615
83952.8
82563.5
80325.9
79930.6
78639.4
81021.9
2224.63
25160.2
39186.3
47303.2
52866.5
56192.2
57734.8
84644.2
83990.3
82605.8
80600.5
80372.4
78801.1
81119.1
2231.08
25395.6
38188.8
47514.3
52872.6
56160.2
57684.5
84697.9
84062.4
82892.3
82841
81217
81345.5
82362.1
2257.43
23709.8
38077.1
47201.7
52922.6
56181.2
57647.3
84747.6
84271.7
84434.7
83304.5
82958.9
82903.6
83153.8
2244.82
26398.5
38573.4
47284.1
52748.8
56070.3
57590.5
84789.7
84334.8
84477
83573.2
84059.4
83562.4
84208.4
16073.2
33496.9
39091.6
47045.1
52637
55938.8
57490.2
84790.2
84343.5
84486
84483.4
84249.4
83790.9
84543.4
34362.7
28380.8
38181.1
46632.9
52421.1
55839.6
57393.5
84772.5
84309.9
84435.3
84423.7
84101.2
83423.3
83802.2
22209.5
24055
37067.8
46227.6
52281.1
55765.7
57351.6
84716.6
84225.3
84371.1
83360.6
83726.2
82850.1
82925.3
2307.12
22659.4
36611.6
46124.5
52260.5
55782.2
57352.6
84669
84027.5
82830.5
82815.2
82559.6
82326.6
82292.8
2331.74
22501.8
36593.4
46387.6
52476
55839
57358.3
84624.7
83963.8
82558.5
80538
80447.6
78916
80919.5
2310.21
23485.7
37705
47057.5
52493.9
55852.5
57394.2
84606.1
83942.2
82546.1
80304.2
79975.3
78653.3
81021.3
2369.46
24940.2
38855.5
46957.3
52538.3
55892.9
57447.4
84604.4
83935.9
82542.1
80293.4
79921.3
78628.7
81060
2382.03
25092.5
38836.1
46987
52583.5
55936
57494.9
84606.5
83938.9
82542.9
80287.1
79874.5
78635.2
81104.8
2394.48
25209.3
38891.5
46999.4
52614.5
55966
57523.2
80221
79008.9
76453
71937.2
69465.7
61434.7
56723.7
2882.93
2173.7
24902.8
37438.5
45657.3
51321.9
54698.7
56323.5
80220.8
79007.2
76447.8
71928.9
69452.9
61410.8
56689.8
2842.77
2197.7
24645.3
37322.6
45606
51252.5
54644.8
56271.6
80229.7
79024.1
76458.5
71900.4
69476.2
61403
56702.3
2407.09
2217.01
20797.6
37300.4
45494.6
51149.1
54552.4
56177.2
80260.7
79077.3
76460.7
71997.1
69577.4
61478.4
56890.4
2265.23
2247.43
21252.6
34617.9
45430.9
51013.8
54438.4
56057.8
80339.9
79171
76585.6
75133.6
69708.7
64974.9
59502.3
2341.34
2260.31
19545.4
33455.3
43669.2
50838.9
54330.3
55927.9
80421.3
79299.5
78591.5
75336.5
72166.9
67317.2
61230.8
3189.78
2313.94
20739.8
33016.3
43383.2
49615.8
54109.5
55782.8
80469.3
79367
78690.5
75510.8
73503.9
68870.8
65477.9
1711.11
2314.05
17825.8
32369.1
42250.5
49345.4
53904.7
55624.8
80472.2
79385.8
78713.5
76844
73768.1
69536.4
67260.9
27471.2
2225.29
14126.7
31016.9
41397.4
49088.9
53782.7
55515.1
80452.6
79337.4
78670.2
76778.5
73541.7
68572.2
63261.8
3663.71
2254.52
13390.1
30306
41076.5
49005.6
53758.6
55498.5
80397
79264.5
78603.8
75257.7
73102.6
67457.8
61087.4
2338.64
2285.83
16890.1
30762.1
41596.9
49114.1
53866.2
55564.7
80317.9
79138.9
76532
75161.4
71767.7
66533.8
59741.1
2288.25
2321.84
18220.7
31522.5
42836.8
50459.8
54030.1
55658.8
80253.3
79066
76443
71969.8
69535.9
61484
56986.1
2269.25
2330.95
19626.1
34050.5
45031.2
50654.1
54145.5
55778.7
80234.2
79031
76469.1
71921.2
69468.2
61420.7
56789.2
2316.5
2371.13
21002.6
37005.9
45176.9
50835.2
54259.4
55894.9
80237.4
79031.2
76487.6
71996.8
69539.5
61525.7
56861.4
2757.02
2384.51
24325.6
37050
45285.2
50942.5
54353.4
55983.4
80244
79040.8
76505
72027.3
69575
61631
57019.5
2622.14
2401.89
24543.5
37135
45323.6
51008.1
54399.3
56029.5
77436.7
75828
72391.3
66260.9
55580.4
45113.7
19228.8
2253.96
2191.3
27777.6
39810
47563.6
52742.1
55829.5
57305.1
77417.5
75802.8
72342.6
66190.8
55455.1
44970.5
19268
2266.96
2196.52
27358
39544
47402.7
52612.2
55733.5
57219.8
77391.6
75773.7
72287.4
66099.2
55252.5
44577.3
19105.1
2264.42
2220.49
21985.8
39125.8
47126.6
52386.2
55557.2
57061.2
77373.1
75776.7
72212.3
66060.2
59741.3
44339.9
19247.9
2291.15
2249.93
21751
34913.5
46717.9
52057.1
55294.9
56838.4
77401.8
75830.1
72320.6
68794.5
59984
48665.2
26212
2285.1
2291.05
18582.5
32695.2
43582
51633.7
55013.8
56586.3
77449.4
75877.2
74048.3
68982.6
62680.8
51625
28393.7
2248.22
2254.95
18098.1
31008.2
42823.2
49410
54690.1
56333.3
77465.1
75899.6
74184.6
69158.5
64250.6
53626.5
35657.8
2277.4
2282.88
14325.8
29284
40767.5
48930.3
54417.4
56121.6
77462.9
75911
74231.9
70621.4
64581.8
54966.8
46645.5
2469.65
2381.09
8725.58
27432.5
39473.2
48632
54279.8
56010.3
77455.8
75887.2
74207.4
70584.1
64449.6
54075.6
33005.6
2292.81
2340.84
3080.6
27043.3
39329
48641.8
54313.7
56031.9
77437.1
75867.4
74152.4
69043.2
64074.1
53096.8
34632.7
2235.01
2306.74
14427.7
28775.6
40604.1
48943.9
54514.2
56176.8
77395.4
75822
72311.4
68956.2
62502
51384.9
27971.1
2276.56
2313.26
17333.7
30491.8
42859
51377.6
54790.4
56369.4
77382
75790.7
72245.7
66117.5
59881.5
44572.6
21138.9
2256.8
2327.86
19422.3
34474.1
46410
51781.9
55041.2
56584.7
77410.9
75802.1
72335.3
66192.2
55374.4
44601.4
19295.7
2254.73
2377.95
21773.5
38885.1
46844.7
52101.5
55275.9
56787.7
77447.4
75844.7
72412
66307.3
55638.4
45030.4
19400.7
2258.95
2393.76
26977.6
39272.2
47081.2
52305.8
55435.8
56926.8
77472
75877.2
72471.4
66399.7
55800.5
45369.9
19582.1
2255.41
2412.13
27341.3
39460.7
47214.6
52421.2
55520.1
57001.8
76881.5
75259.8
71770.9
65659.8
55095.5
42579.1
7425.08
2284.66
12728.6
36275.7
46336.4
52693.9
56852.1
59286.1
60444.7
76833.9
75200.5
71666.4
65482.9
54894.6
41984.9
6988.09
2247.64
9738.14
35489
45820.7
52403.4
56652.3
59144.9
60325.4
76757.5
75107.5
71511.1
65227.6
54977.1
40606.6
8533.89
2295.29
2217.49
27204.1
45185.3
51954.4
56297.7
58884.5
60105.3
76672.6
75029.4
71368.2
65107.5
56842.2
39834.9
10063.4
2266.65
2241.51
26311.9
39656
51297.9
55802.1
58519.8
59803.3
76629.2
75006
71418.2
66552.2
56649.4
42410.7
19180.6
2285.04
2245.89
21294.2
36222.4
47196.5
55211.7
58110.4
59461.6
76615.6
75010.8
72288.8
66513.9
58264.4
44010.2
20210.7
2208.52
2260.55
19470
33343.2
45975.2
52259.5
57727.2
59135.7
76586.2
74979.5
72326
66551
59195.5
44545.3
19469.9
2265.31
2254.4
14126.7
30909.4
43158.4
51606.7
57405.5
58885
76577.3
74974.9
72366.9
67587.7
59435.5
45436.4
19913.5
2266.09
2294.21
9160.54
28825.4
41470.1
51282.1
57263.7
58770.9
76588.5
74987.4
72380.7
67612
59513.1
45951.2
23986.5
2305.88
2386.85
5887.18
28764.1
41496
51375.5
57343.8
58818.6
76619
75026.2
72367.5
66634.5
59397.8
45673.9
24677.6
4898.81
2322.16
15858.8
31204.6
43423.6
51828
57616.5
59018.5
76639.3
75025.8
71467.5
66694.7
58406.9
44409.3
20294.7
2258.28
2329.28
19995.7
33644.2
46523.7
55059.2
57939
59282.9
76693.2
75062.4
71433.9
65227.8
56864.1
40291.3
18307.6
2301.54
2334.31
22997.7
39050.9
51106.8
55586.2
58294.5
59573.7
76784.3
75149.1
71582.9
65365.9
55165.2
40380.7
9070.65
2291.58
2391.68
26627
44961.1
51685.9
56029.1
58612.7
59834.5
76867.6
75250.2
71751.2
65639.8
55128.7
42341.7
7423.16
2262.52
7707.93
35158.9
45428.1
52043.7
56336.2
58838.6
60025.4
76918.7
75314.3
71862.6
65837.8
55361.7
43038.4
7517.74
2214.63
8224.82
35524.4
45728.7
52270.7
56506
58960
60129.1
78740.7
77595.7
75183.2
71310.7
63306.4
54188.9
24678.3
2243.75
40303.6
53632.1
57399.7
61023.5
63272.4
64607.7
65269.4
78664.4
77497.4
75018.4
70967.7
62736.7
53180
19642
2276.76
38049.8
52866.8
56766.9
60639.4
63025
64437.2
65129.1
78535.7
77333.8
74752.1
70346.2
63861.8
49417.6
19883.7
3285.49
19376
41432.9
56210.9
60028.9
62581.2
64128.6
64872.5
78382.5
77144.7
74423.3
69881.3
62207.7
47468.3
18324.7
2327.59
2237.5
38418.7
49494.5
59204.3
61976
63709.6
64528.9
78262.5
76998.9
74256.1
69442.6
61113.6
46971.6
22547.3
2269.69
5991.61
30128.8
45024.6
54411.8
61333.1
63244.3
64150.6
78178.4
76924.2
74008.2
68947.2
60804.3
46634.6
23854.4
9098.43
5768.3
26258.8
40868.4
53004
57880.2
62858.5
63805.5
78100
76828.5
73858.5
68717.5
60689.9
45914.9
20521
2295
2237.67
18988.1
37484.6
49613.3
57190.3
62538.2
63544.4
78077.8
76801.2
73828.2
68950.2
60625.4
46433.3
29328.7
2296.46
2294.65
11393.2
35145.5
47646.4
56887.8
62404.1
63430.5
78104
76836.8
73865.7
68984.5
60694.8
46340.5
22143.5
2322.26
2291.42
13721.2
35793.6
47840.6
57025.7
62496
63483
78183.6
76942.3
73954.2
68926.4
60897.8
46423.7
21065.4
2304.62
7523.79
23146
38840.3
50180.1
57519.7
62768.8
63701.5
78272.1
77019.4
74312.9
69298.7
61130.3
47110.6
23886.6
4302.49
10842.1
28476.6
41861.5
53809.9
61204.6
63080.3
63977.6
78398
77175.9
74494
70028.3
61803.7
47391.6
22078.7
2335.1
2382.44
33108.9
48715.3
59027.9
61760.2
63480.6
64296.4
78553.5
77369.1
74826.3
70513.5
64190.7
48912.9
19521.5
2419.8
18266.4
39928.8
55943.2
59741.8
62298
63843.2
64590.6
78684.9
77535.7
75094.6
71129.9
63080.3
53390.8
23091.5
2377.42
39153.3
52997.3
56357.3
60273.7
62686.4
64109.1
64811.9
78762.3
77636.1
75261.5
71486.4
63715
54413.2
29393
2414.68
41057.3
53729.1
56822.2
60598.7
62898.7
64256.2
64933.5
82473
82140.1
81549.9
81818.5
81880.2
90490
130535
135292
100510
79460.4
72851.7
71793.6
71166.7
71086.3
71128.9
82377.3
82008.9
81346.9
81367.6
81092.7
89446.6
129646
122820
95259.3
78031.4
72033.8
71324
70904.6
70908.6
70986
82206
81771.9
80980.8
79929.9
80098.5
74466.3
83217.2
75766.4
68330.5
67521.8
70693.4
70392.4
70412.2
70585.5
70722.2
81992.3
81477.7
80419.3
79008.3
74501.4
69098.8
57956.4
19273.8
37622.4
63360.9
65041.5
69321.4
69759.1
70159.8
70374.4
81804.3
81216.2
80024
76556.8
72723.4
63725.5
42209.7
3694.49
24837.4
51266.1
59895.8
64993.3
69075
69692.3
70002.4
81662.7
81048.6
78566.9
75765.5
70189.8
60006.3
36707
2254.71
18084.5
43894.8
54914.2
63628.3
65829.2
69296
69683.9
81544
80901.4
78238.2
75343
68933.8
57727.6
29299
2194.65
2267.19
33357.1
51077
60099.5
65197
69007.6
69440.9
81509
80854.1
78137.8
74575
68491
57027.5
29940.7
3394.72
2337.55
24506.6
48820.7
58084.8
64996.8
68889.4
69334.2
81540.7
80896.9
78179.8
74607.6
68517.8
57014.5
30246.1
2303.88
2221.33
28716.8
49758.4
58306.9
65094.1
68950.5
69376.8
81652.9
81044.6
78362.9
75578.8
69062.8
58179.7
32524.9
2304.1
8571.44
38942.1
52710.9
60643.3
65469.8
69170.4
69553.8
81792.5
81209.4
80038.8
76122.9
70610.5
60658.8
37687.8
2326.52
20253.8
46034.4
55907
64282.8
68873.4
69490.7
69800.9
81981.5
81480
80455.5
79121.9
73746.5
68245.5
45380.3
3489.44
25759.7
55248.3
63860
69033.7
69481.5
69891.3
70112.2
82193.6
81776.1
81025.3
80079.2
80499.1
71996.3
70661.8
62809.1
60864
64981.9
70282.8
70040.3
70077.9
70263.1
70410.7
82362.1
82008.2
81373.1
81423.3
81387.7
88662.4
130431
117803
94590.7
77410.3
71538.9
70933.1
70526.7
70547.3
70640
82456.2
82138.1
81572.5
81857.6
82225.1
89444.1
129769
132069
98802
78726.1
72269.9
71371.7
70765.1
70705.7
70765.8
86919
87349.2
88224.4
91364.2
96570.4
101965
126396
126324
111814
94526.9
86133.7
81741.6
78873.2
77665.7
77160
86834.3
87233
88104.4
91204.9
96444.9
102980
130438
139612
112311
94492.1
85692.1
81393.8
78667.2
77510.6
77035.7
86663.1
86962.6
87835.1
89771.8
95014.4
99680.8
122442
151817
119130
94073.7
84261.3
80417.9
78225.4
77206.5
76796.4
86432.2
86638.8
87197.2
88700.9
89443.4
97622.6
121750
165947
122185
91665.5
81806
79204.4
77608.3
76810.2
76478.7
86214.1
86326.2
86617.9
85667
87180.5
89587.8
101221
189511
109308
84373.2
78146.2
76484.8
76920.8
76370.6
76133.7
86055.2
86037.4
84692.5
84718.5
83932.6
83965.7
88261.2
125745
82885.3
76348.8
74225.5
75366.9
74678.6
75962.4
75844.7
85925
85863.1
84378.6
84180.4
81905.1
81595.6
83730.5
108797
46237.9
68608.5
71636.6
73110.7
74235.9
75703.1
75630.6
85883
85813.4
84259.8
82844.5
81316.9
80048.2
77063.9
25803.4
34710
66797.1
70643.5
71704.8
74019.7
75595
75532.4
85907.2
85844.7
84287.8
82845.9
81234
79536.6
73732.1
43244.1
46722.3
68923
71042.3
71778
74043.1
75615.1
75545.6
86019.1
86002.7
84472.1
84316.8
81790.7
80958.8
78636.1
75378.6
70421.9
72081.4
72312
73244.7
74286.8
75785.3
75674.8
86165.4
86272.1
86564.8
85108.7
84199.6
84167.6
89193.5
123656
80281.4
76844.2
74432.6
75507.7
76614.1
76104.4
75886.1
86376.8
86587.9
87159.1
88703.3
88737.5
95677.7
110502
194006
109476
85962.5
80134.6
78747.5
77229.6
76479.5
76170.5
86600.5
86909.2
87806.6
89804.5
95204.9
99367.2
123948
157678
118702
92790
83631.8
79926.1
77804.2
76829.9
76442.8
86761.9
87164.4
88048.4
91122.9
96638.6
102676
131377
141108
111539
93557.9
85070.7
80876.7
78218
77102.7
76651.9
86842
87274.8
88165.8
91243.1
96772.2
101823
126853
130098
110183
93739
85494.9
81211.3
78411.8
77244.1
76762.8
90793
91510
92651.6
95146.1
99865.9
99019
103781
107341
102219
96083.1
91655.6
87736
84706.9
83219.4
82475.2
90764.6
91481.3
92708.1
95491.9
100364
100709
105853
110212
103423
97160.9
91930.6
87742.3
84653.1
83135.2
82397.3
90676.9
91317.3
92791.1
95336.6
99855.2
102896
108694
118578
107066
98908.6
91488.1
87359
84453.9
82927.8
82229.9
90518.5
91116.6
92468.3
95224.5
97379.2
104705
115708
130363
115873
99790.9
91445.5
86809.9
84107.2
82641.4
81994.7
90334.1
90858.7
92093.7
92867.7
96826
103142
117733
140203
121518
101524
90752.6
85653.2
83656.4
82291
81715.2
90173.1
90522.4
90579.3
92254.2
94661.8
101215
117316
149170
124780
101019
90013.3
85235
82466.1
81899
81460.6
90055.3
90356.9
90388.4
91908.7
93514.6
100848
121080
120507
128170
101984
89835
84520.4
82215.3
81686.1
81281.5
90013.9
90300.1
90289.8
90847.6
93185.9
100276
118799
164664
143206
104583
89998.1
84059.4
82016.1
81578
81191.3
90019.9
90315.7
90290.3
90813.4
93062.3
99703.8
116438
156430
135881
103393
89593.5
83892.3
81948.8
81564.5
81172.8
90106.1
90448.6
90392.3
91888.1
93270.8
99887
116011
149927
124778
100213
89004.7
84071.6
82020.8
81668.6
81251.2
90241
90746.7
91957.4
92376.4
94588.1
100821
116955
149931
121375
99377.4
89115.3
84798.3
83223.9
81955
81420.5
90407.3
90995.2
92326.7
95014.8
96877.4
104467
116969
138469
118932
99628.4
90175.2
86198.2
83628.8
82250.2
81640.7
90549.9
91181.7
92638.3
95137.5
99604.9
103503
110842
121913
107215
98300.7
90740.1
86744.4
83954.8
82498.2
81834.8
90622
91325.1
92538.4
95237.4
100185
100450
105117
109547
102104
96372.1
91225.9
87116.4
84141.4
82680.4
81976.4
90643.8
91344.2
92483.9
94869.7
99634.8
98946.6
102532
105980
100245
95396.4
90939.5
87108.5
84189.6
82755.2
82043.6
93474.3
94068.8
94877.2
95784
98740
97985.8
98802.1
103436
97691.5
95354.4
93047.6
90568.9
88440.6
87273.4
86591.6
93511.8
94129.8
95010.7
96278
99301.7
98891
99935.4
101714
98693.9
96232.8
93513.2
90785.9
88517
87274
86575.1
93554.4
94134.3
95317.6
96934.1
99799.5
101363
104785
108986
103923
98392.9