/*--------------------------------*- C++ -*----------------------------------*\
| =========                 |                                                 |
| \\      /  F ield         | OpenFOAM: The Open Source CFD Toolbox           |
|  \\    /   O peration     | Version:  v2012                                 |
|   \\  /    A nd           | Website:  www.openfoam.com                      |
|    \\/     M anipulation  |                                                 |
\*---------------------------------------------------------------------------*/
FoamFile
{
    version     2.0;
    format      ascii;
    class       volScalarField;
    location    "0.018";
    object      p;
}
// * * * * * * * * * * * * * * * * * * * * * * * * * * * * * * * * * * * * * //

dimensions      [1 -1 -2 0 0 0 0];


internalField   nonuniform List<scalar> 
449343
(
102577
102712
102937
103156
103253
103005
102221
100824
98865.5
96554.6
94185.2
92035.5
90302.2
89100.1
88487.2
102557
102693
102918
103137
103233
102984
102199
100803
98846.1
96536.8
94168.1
92017.6
90282.9
89079.3
88465.6
102538
102673
102900
103118
103213
102961
102175
100779
98824.8
96519.4
94152.5
92000.9
90263.2
89056.9
88441.7
102518
102654
102880
103098
103191
102933
102144
100747
98797.4
96497.6
94135.6
91983.4
90241.9
89031.9
88414.7
102497
102634
102860
103075
103168
102900
102108
100710
98764.3
96471.2
94115.5
91963.2
90217.6
89003.4
88384
102475
102612
102838
103051
103141
102866
102067
100669
98726.9
96440.8
94090.4
91938.2
90188.6
88970.5
88348.9
102451
102588
102814
103025
103110
102829
102026
100624
98685.2
96405.4
94057.2
91906.6
90153.5
88932.5
88309.5
102425
102561
102786
102995
103077
102793
101983
100577
98637.2
96361.5
94015
91864.7
90111
88889.6
88266.5
102396
102531
102755
102963
103044
102758
101949
100541
98596.4
96312.9
93963.6
91813.8
90062.5
88843.1
88221.1
102366
102500
102723
102930
103012
102726
101915
100505
98553.4
96261.3
93909.1
91757.8
90010.8
88795.5
88175.5
102335
102469
102690
102896
102980
102697
101887
100474
98515
96213.4
93854.6
91703
89960.4
88749.5
88132
102305
102438
102658
102865
102950
102673
101865
100449
98483.3
96172.7
93805.9
91653.4
89914.5
88707.6
88092.3
102277
102410
102629
102835
102922
102649
101843
100426
98454.8
96136.9
93763.8
91610.8
89874.7
88670.9
88057.4
102252
102384
102602
102809
102897
102626
101820
100403
98428
96105.4
93728.8
91575.7
89841.5
88639.8
88027.5
102230
102361
102579
102785
102874
102604
101799
100381
98404.2
96079.3
93701.4
91548.4
89815.2
88614.5
88002.7
102427
102610
102937
103309
103586
103562
102916
101459
99248.2
96597.3
93926.6
91574.4
89727.5
88469.3
87834.1
102408
102591
102918
103291
103567
103542
102895
101438
99230.3
96582.3
93912.2
91558
89708.5
88448.3
87812.2
102388
102572
102901
103274
103550
103521
102871
101416
99213.7
96571.7
93903.1
91544.7
89689.7
88425.5
87787.4
102368
102553
102883
103258
103531
103492
102837
101379
99185.4
96556.1
93895
91532.2
89669.5
88399.7
87759.1
102348
102534
102866
103240
103510
103453
102794
101336
99137.6
96535.3
93886.2
91518.2
89646.1
88370
87726.4
102326
102513
102847
103222
103488
103418
102748
101290
99102.2
96508.6
93870.3
91499
89617.9
88335.3
87689.1
102302
102491
102825
103198
103456
103386
102706
101242
99058.9
96479.8
93856.4
91474.4
89582.7
88295.8
87647.6
102276
102464
102797
103169
103424
103347
102656
101141
98999.2
96429.8
93813
91431.2
89538
88251.1
87602.7
102247
102434
102766
103136
103389
103312
102624
101155
98961.4
96378.5
93754.4
91375.3
89487.2
88203
87556.3
102217
102402
102731
103099
103357
103274
102589
101115
98913.9
96314.3
93676
91307.8
89432
88154.2
87510.6
102186
102370
102696
103061
103320
103244
102565
101086
98870.1
96259.2
93608.6
91244.5
89378.8
88108.4
87468
102156
102338
102662
103025
103286
103228
102549
101067
98854.8
96213.7
93549
91188.8
89331.6
88067.3
87429.8
102129
102309
102631
102994
103257
103207
102533
101054
98829.8
96174.1
93499.9
91142.3
89291.4
88031.7
87396.4
102104
102283
102604
102965
103229
103182
102511
101030
98801.2
96138.2
93460.5
91105.2
89258.4
88001.6
87367.7
102081
102261
102580
102941
103205
103160
102491
101009
98777
96110.6
93431.5
91077.3
89232.3
87976.9
87343.7
102045
102336
102892
103628
104375
104921
104688
103075
100192
96649.9
93239.6
90427.1
88332.9
86954.9
86273.3
102025
102317
102874
103612
104360
104904
104669
103058
100179
96642.4
93231.6
90413.9
88314.5
86933.4
86250.3
102005
102299
102859
103601
104351
104890
104644
103043
100174
96651.5
93238.9
90407.8
88296.9
86909.3
86223.3
101984
102281
102846
103593
104345
104864
104595
103011
100132
96656.1
93259.6
90408.1
88278.4
86881.1
86191.4
101964
102263
102834
103586
104333
104810
104492
102896
100041
96669
93278.4
90406.3
88256.1
86847.5
86153.6
101942
102246
102824
103579
104330
104763
104425
102846
100007
96663.9
93299.7
90400.4
88226.6
86807.8
86110.2
101918
102224
102804
103567
104293
104737
104373
102789
99953.7
96635
93374.3
90388.3
88191.9
86763.1
86062.8
101893
102199
102779
103542
104268
104709
104345
102749
99881.2
96573.9
93318.8
90339.1
88142
86713.9
86013.6
101864
102168
102746
103504
104224
104658
104279
102682
99832.3
96512.9
93252.2
90274.8
88085.7
86662.3
85965
101833
102135
102708
103456
104195
104610
104248
102645
99778.5
96432.6
93069.6
90181.4
88021
86612.3
85919.9
101803
102099
102665
103406
104138
104593
104241
102611
99726.3
96347.9
92958.8
90099.4
87964.5
86567.8
85880.4
101773
102067
102625
103361
104096
104592
104288
102668
99757.3
96268.7
92872.1
90031.6
87915.8
86529.9
85846.3
101747
102037
102591
103321
104056
104572
104291
102656
99755.7
96216.8
92800.9
89976.5
87876.1
86497.6
85816.9
101722
102012
102562
103288
104021
104543
104274
102631
99724.4
96168.3
92750.5
89936
87844.1
86470.3
85791.4
101701
101989
102538
103263
103995
104519
104255
102610
99698.8
96136.8
92718.3
89907.2
87818.8
86447
85769
101300
101750
102649
103971
105583
107201
108141
106232
101869
96458.4
91793.9
88339.2
85948.9
84447
83725
101278
101730
102632
103957
105573
107191
108119
106220
101861
96463.5
91794.8
88328.6
85929.8
84423.7
83699.8
101256
101711
102619
103954
105579
107196
108103
106235
101901
96522
91828.1
88329.2
85911
84395.8
83668.3
101233
101692
102611
103965
105597
107218
107928
106247
101830
96648.9
91913
88342.1
85889.6
84361.1
83629
101209
101674
102606
103972
105620
107137
107125
105897
102574
96784.3
91999.1
88359.1
85860
84316.7
83580.5
101187
101660
102615
104025
105682
106323
106966
105835
102580
98003.6
92115.3
88369.8
85821.7
84261.7
83523.9
101160
101638
102604
104021
104997
106322
106887
105744
102494
97964.8
93344.6
88341.7
85767.4
84203.7
83464.4
101135
101617
102588
104002
104967
106305
106863
105589
102415
97897.6
93258.2
88279.9
85714.9
84148.9
83406.7
101106
101584
102547
103958
104927
106252
106790
105602
102344
97817.8
93192.7
88207.6
85644.1
84090.4
83356.8
101078
101549
102499
103899
105542
106174
106748
105571
102283
97736
91802
88098.8
85582.3
84043.3
83315.9
101049
101511
102438
103792
105419
106911
106837
105574
102245
96381.1
91598.4
87993.7
85528.5
84009.3
83285.2
101024
101480
102392
103734
105343
106936
107588
105844
101362
96167.7
91448.1
87909.5
85488
83981.7
83260.9
101000
101452
102354
103678
105283
106880
107731
105808
101428
96023
91331.4
87851.8
85456
83958.3
83240.2
100979
101428
102324
103638
105236
106838
107713
105767
101365
95939.6
91266.6
87812.5
85429.9
83937.3
83220.9
100959
101406
102300
103611
105206
106809
107701
105746
101341
95903.1
91231.4
87785.2
85407.9
83917.4
83201.9
99990.3
100614
101910
103971
106861
110481
114375
111720
104398
95279.9
88884.8
84901.2
82372.5
80870
80175.9
99965.9
100591
101891
103959
106858
110484
114357
111715
104417
95310.1
88894.6
84889.2
82349.6
80842.8
80147
99937.3
100566
101874
103959
106887
110530
114375
111744
104523
95415.6
88947.1
84885.3
82322.3
80806.8
80107.6
99906.8
100542
101868
104009
107040
110703
112040
111858
106150
95981
89164.6
84910.1
82286.9
80758.4
80055.4
99871.2
100512
101863
104042
107096
109161
111995
111795
106268
98257.8
89333.5
84906.1
82230.2
80690.2
79987.7
99843
100500
101898
104224
106202
109315
111982
111639
106191
98426
91511.2
84932.2
82135.2
80609.2
79908.1
99804.6
100461
101865
103601
106238
109374
110987
110858
106407
99340.5
91612.5
86729.1
81988.5
80506.1
79823.8
99782
100446
101906
103584
106249
109365
110948
110752
106318
99260.3
91575
86702.8
82017.2
80432.1
79758.8
99751.8
100408
101810
103539
106200
109312
110871
110679
106192
99142.9
91449.3
86605.4
81838.2
80376.7
79704.6
99735.1
100390
101784
104099
106067
109166
110885
110635
106105
98049.8
91195.6
84580.6
81847.2
80361.4
79678.8
99713.4
100352
101698
103866
106894
108980
111669
111255
105650
97802.5
88776.6
84444.9
81843
80348.4
79666.8
99699.7
100333
101653
103783
106791
110407
111672
111410
105723
95314.3
88571.1
84396.1
81834.7
80345.9
79661.9
99685.1
100312
101615
103692
106602
110227
113992
111333
103970
94813.4
88366.6
84349.1
81826.8
80340.7
79656.7
99670.3
100294
101590
103650
106534
110149
113954
111268
103871
94713.4
88303.9
84327.2
81816.6
80332.1
79648.3
99653.6
100276
101568
103623
106499
110110
113943
111240
103830
94662.6
88269.3
84308.1
81802.5
80318.6
79634.8
97866.3
98615.5
100232
102998
107402
114333
119971
125465
111972
90839.3
83313.1
79566.2
77346.7
76147.5
75630.1
97835.8
98586.2
100206
102982
107404
114341
119963
125454
111957
90849.1
83309.8
79540.5
77314.7
76114.1
75595.8
97794.6
98545.7
100170
102954
107407
114387
119969
125472
111987
90900
83309.7
79493.6
77265.9
76064.4
75545.3
97747.2
98507.8
100151
102992
107776
112197
120074
125637
112115
95483.7
83497
79400.7
77193.3
75995
75475.2
97687.7
98442.1
100092
103034
106528
112456
120379
123236
113575
96413.6
86849.7
79279.3
77023
75879.3
75379.5
97640.3
98391.5
100119
102592
106607
111483
118556
122133
113637
98681.2
86947.2
81646.1
76805.5
75723.6
75264.2
97584.8
98323.6
100079
102604
106717
111482
117568
121993
113901
99446.8
88543.7
81576
76595.5
75562.9
75146.5
97546.6
98271.2
100059
102633
106040
110931
117516
121824
113620
99205.2
88333.4
81437.4
78505.6
75437.6
75065.1
97531.1
98269.7
100023
102576
106001
111367
117456
121719
113449
99007.5
88167.1
81284.1
76398.1
75415.1
75015.7
97534.9
98284.1
100010
102460
106590
111370
117375
121687
113380
98844.2
88087.5
81229.8
76459.2
75444.9
75014.5
97531.4
98285.7
99931.9
102867
106348
112296
118178
122631
112788
97611.4
86197.1
78670.7
76566.1
75502.9
75035.8
97543.1
98302.1
99943.4
102780
107552
111978
119775
125140
111376
94841
82726.9
78787.3
76688.5
75551.9
75060.8
97545.9
98296.8
99920.1
102700
107142
114097
119639
125024
111365
90137.2
82626.4
78893
76731.9
75574.9
75077.9
97544.2
98294.7
99914.3
102688
107103
114020
119602
125014
111373
90150.7
82651.7
78933.9
76753.7
75586
75084.7
97533.9
98283.4
99900.5
102667
107065
113980
119594
125007
111362
90124.2
82639.4
78936.4
76753.6
75581.9
75078.9
94705.9
95432.8
97052.6
99992.1
104989
111832
128317
158336
116505
83498.8
73076.7
71579.9
70687.9
70341.6
70221.7
94666.8
95393
97011.9
99950.8
104957
111804
128280
158303
116298
83386.1
73013.7
71519.6
70643.8
70301.2
70182
94605.8
95325.7
96933.9
99851.2
104822
111765
128190
158262
116250
83431.7
72940.7
71432.4
70571.8
70235.4
70120.4
94528.8
95242.2
96842.7
99600.9
104172
112106
128182
158184
116375
83844.7
76539.9
71118
70449.5
70135.2
70032.5
94426.4
95113.9
96618.3
99636.1
104159
111190
125230
158139
118285
88349.9
76450.3
73410.7
70139.3
69975.6
69908.4
94326.7
94939.4
97050.7
99655
103864
111114
123772
153108
123339
90610.2
78711.1
73130.5
71790.1
69740
69759.8
94254
94858.9
97008
99610.7
103849
110643
123604
152836
122639
90093.1
79690.3
74565.8
71597.4
69604.5
69636.2
94194.7
94799.4
97033.4
99601.6
103809
110573
123501
152615
121704
89337.9
79288.8
74325
71467.3
69520.3
69531.8
94201.6
94806.4
96962.6
99593.5
103804
110546
123467
152548
121446
88962.2
79013.2
74155.6
71321.7
69454.7
69501.1
94220.7
94834
96951
99518
103784
110557
123505
152589
121376
88781.3
78859.8
74076.2
71326.3
69445.3
69500.5
94271.3
94959.4
96464.4
99474.3
103994
111023
123621
152692
121140
88590.6
77613.3
72532.1
69627.4
69580.9
69554.6
94326.5
95041.8
96647.1
99409.6
103860
111825
125054
157736
115469
86765
75442.1
70432.1
69907.1
69677
69611.9
94359.1
95081.5
96693.7
99618
104601
111539
127979
157897
115474
82574
72180.4
70790.6
70018.3
69739.6
69652.3
94377.5
95106.9
96732.3
99680.8
104703
111576
128033
158000
115578
82612
72310.7
70891.6
70075
69773.5
69674.8
94376
95106.5
96733.3
99683.9
104699
111557
128063
158031
115641
82620.5
72354.1
70930.8
70090.6
69779.1
69676.9
90444.4
90894.9
91891.7
93705.1
96662.4
103342
110669
108007
28413.2
53838.8
58399.2
61123.7
62826.8
63894.6
64376.8
90397.2
90844.9
91836.7
93639
96601.5
103279
110618
107894
24987
53508.3
58256
61053.7
62782.9
63851.9
64334.9
90317.9
90752.6
91731.6
93529.3
96445.7
103144
110493
107778
24367.4
53530.4
58244.3
61033.3
62731.8
63789.7
64272.9
90211.9
90615.3
91564.9
93207.1
97682.9
102693
110194
107566
25024.4
54188.1
59904.5
61137
62678.2
63700.8
64189.9
90070.8
90439.7
91301.3
94289.9
97376.9
103046
110911
107258
35902.7
59282.8
61896.5
62517
62610
63594.1
64078.7
89915.2
90258.7
92386.1
94121.9
97786.8
103212
110636
106833
43515.9
60641
63002.8
62504.1
63698.1
63507.4
63951
89835.7
90170.1
92315.1
93995.5
97983.2
103088
110465
106650
35820.9
59382.2
62710.6
63320.1
63527.3
63432
63860.4
89783.8
90106.5
92246.8
94590.5
97937.8
103016
110387
106603
26099.2
57649.7
62172.3
63631
63431.1
63373.4
63774.2
89781
90115.8
92223.1
94559.8
97916.3
103001
110390
106685
26787.2
57085.7
61797.6
63420.4
63288.5
63289
63733.6
89806.9
90153
92255.3
93942.6
97914.2
103042
110473
106866
28644.4
56923.7
61558.3
62762.7
63221.3
63237.9
63708.1
89912.9
90284.3
91152.1
94060.3
97705
103134
110638
107119
24654.5
56431.7
61276.7
61673.4
62132.1
63211.4
63738.9
90006.7
90414.9
91374.4
93032.6
97403.6
102241
109834
107548
23832.4
54401
58695.8
60418.3
62136.8
63258.2
63788
90068.4
90509.3
91501.4
93320.1
96265.2
102760
110225
107738
23476.9
52527.4
57440.8
60397.5
62198.7
63318.7
63829.7
90105.3
90559.9
91566.4
93391
96384.8
103050
110431
107888
23741.2
52615.5
57562.8
60451.3
62242.7
63353.2
63856.3
90112
90570
91582.2
93418.8
96408.8
103107
110502
107970
23723.9
52672.9
57655.9
60493.8
62257.8
63363.5
63863.7
85345
85281.9
85128.3
84886.3
84922.3
88981.7
92677.2
105693
13460.1
32716.6
44682.4
51150.7
55363.6
57809.9
58902.3
85295.3
85228.8
85072.1
84824.1
84872.1
88911.3
92613.8
105482
3976.13
32443
44546.1
51105.3
55325.9
57768.1
58860.8
85213.8
85138.7
84977.8
84768.4
84785.6
88768.1
92471.8
105354
3168.74
32523.9
44598.9
51125.7
55302
57723.2
58806.6
85108.2
85003.8
84837.7
84758.2
87472.4
88660.6
92200
105177
4838.18
33028.8
45084.2
51360
55321.1
57683
58747.1
84979
84852.2
84731.1
86677.2
87431.6
90398.7
93171.2
105050
2404.38
34083.3
46030
52216.4
55365.1
57652.8
58681.7
84841.5
84776.7
86250.2
86534.5
88587.1
91099.8
92966.5
104502
4319.72
34724.4
46451.9
52140.4
55979
57617.9
58608.3
84776.2
84720.9
86102.9
86454.2
89153.8
90950.8
92810
104240
2054.31
33874.9
46170.9
52376.7
55860.7
57544.1
58536.1
84727.1
84664.7
86016.5
87381.7
89071.3
90866
92726
104090
3034.61
33157.5
45771
52417.5
55727.5
57485.3
58461.7
84717
84662.4
85993.8
87351.5
89050.2
90848.2
92720.9
104207
2312.68
32435
45458
52251.7
55637.1
57415.7
58426.7
84726
84664.5
86032.5
86414.5
89079.2
90902.4
92796.2
104390
2296.02
32202.1
45277.5
51929
55616.1
57379.2
58400.1
84810.8
84687.3
84574.1
86435.3
88522.9
91038.4
92943.3
104607
2325.18
32020.3
45127
51463.2
54947.4
57325.6
58388.1
84891.5
84794.1
84642.4
84586
87336.2
88649.5
92249.3
105114
2308.61
31871.6
44391.9
50783.6
54857.3
57299.5
58395.7
84952.3
84886
84743.6
84561.1
84612.2
88564.2
92224.7
105151
2657.18
31864.3
43989.7
50607
54850.4
57316.8
58419.9
84991
84934.6
84798.6
84580.6
84663.2
88676.5
92405.4
105302
3147.86
31813.7
44002
50606.3
54864
57334.1
58441.6
85000.2
84947.8
84816.1
84605.6
84675
88751.4
92489.9
105384
2793.15
31766.9
44070.5
50612.5
54871
57346.8
58449.7
80095.2
79464.1
78146.9
76035.2
75741.8
74753
77324.3
5260.32
24519.2
37194.1
44886.8
50187.2
53348.4
54815.2
80046.7
79412.7
78092.9
75980
75679.7
74678
77246.4
2292.02
24363.5
37150.7
44862.8
50144.4
53301.5
54768.4
79974.4
79339.9
78010.3
75906.7
75638.1
74586.6
77088.8
2297.39
24192.1
37222.4
44836.9
50097.6
53245.4
54703.7
79892.6
79251.6
77907.7
75972.9
75852.5
74433.8
76838.1
2296.33
24341.7
36353.1
44980.6
50067
53191.2
54628.8
79813.1
79170.4
77954.4
77914.8
76341.1
76413.2
77429.1
2351.78
22570
35933.4
44619.7
50002.9
53137.8
54553.2
79733.5
79208.2
79325.6
78116.8
77597.5
77304.4
77322.4
2276.42
21818.1
35515.4
44448.6
49902.8
53011.1
54473.5
79687.3
79179.5
79232.9
78130.7
78300
77252.5
77218.9
2268.69
21523
35246.6
44152.3
49776
52889.4
54379.1
79637.6
79134.9
79163.9
78948.9
78328.3
77180.9
77103.8
2354.18
21630.7
35060.5
43968.6
49645.3
52828.1
54306.6
79620.5
79113.9
79135.9
78933.5
78298.7
77141.4
77051.9
2336.73
21504
34974.5
43890.4
49609.9
52801.5
54298.7
79602.8
79081
79166
78056.4
78215.2
77148.1
77083.6
2288.21
21533.8
34990.4
43950.6
49657.9
52844
54318.5
79623.9
78986.1
77781.3
77733.3
77438.2
77170
77179.2
2292.88
21618.3
35038.3
44167.8
49750.4
52904.6
54331.1
79651.6
79019.5
77695.6
75792.8
75720.2
74438.4
76444.4
2286.24
22494.3
35953
44637.1
49744.1
52910.4
54359.7
79686.4
79063
77757.7
75692.1
75432.4
74389.8
76848.1
2293.46
23795.6
36870
44489.3
49772.8
52936.3
54401.3
79714.9
79093.9
77801.6
75730.1
75471.4
74473.9
77019.1
2297.98
24003.7
36845.9
44537.7
49806.6
52966.9
54435.8
79722.5
79105.3
77817.2
75748.5
75455.1
74514.6
77099.7
2293.61
24055.7
36881.3
44529.4
49827.9
52984.3
54450.2
75589.5
74433.9
72004.6
67733.2
65522.4
58162
54111
2504.35
2297.59
23631.8
34772.7
42702.6
48069.7
51317
52871
75536.9
74376.6
71937.1
67649.6
65434.4
58042.3
53970.6
2391.88
2299.2
23250.6
34765
42679.3
48004.9
51253.7
52807.5
75459.6
74297.2
71828.6
67491.8
65300.8
57828.3
53693
2271.14
2296.99
19915
34822.3
42561.1
47898.7
51149.5
52705.3
75375
74213.9
71668.1
67352.6
65141.8
57575.4
53499.8
2407.64
2300.89
20124.4
32391
42409.4
47728.8
51004.2
52556.6
75306.1
74127.9
71532.6
70173.4
64830.2
60345.1
55315.7
2244.89
2290.94
17844.1
30955.1
40714
47487.3
50865.7
52406
75243.2
74068.4
73346.8
69957.5
66658
61598.6
55497.3
2831.7
2273.49
16854.5
29910.2
40333.3
46420.6
50643.8
52257.9
75180.4
73997.3
73265.6
69760.4
67406.4
61518.8
55510.6
2264.85
2304.16
16088.3
29443
39359.3
46219.4
50478.1
52124.3
75120.4
73945.6
73187.2
71048
67321
61395.7
55207.3
2474.13
2352.54
16112.3
29262.5
38891.1
46097.7
50410.6
52054.1
75101.1
73920.3
73162.9
71034.1
67281.2
61326.7
55086
3070.46
2289.86
16685
29406.6
38909.5
46118.5
50434.1
52079.9
75087.3
73918.7
73201.3
69712.1
67317.7
61334
55091.8
3099.83
2296.26
17240.6
29720.5
39420.7
46256.2
50556.9
52170
75082
73910.3
71330.6
69939.8
66542.9
61402.7
55148.3
2920.15
2291.73
17595.1
30049.9
40405.1
47373.3
50733.9
52268.8
75092.5
73941.9
71422.6
67155.1
64872.1
57421.1
53417.4
2287.12
2291.38
18634.9
32105.3
42256.1
47562.5
50844.2
52387.2
75125.8
73977.7
71541.9
67264.7
65020.2
57643.3
53609
2409.2
2296.35
19705.3
34682.3
42391.6
47711.9
50951.3
52496.7
75157.6
74014.3
71612.6
67388.7
65184
57823.4
53728.6
2732.48
2295.88
22896.2
34703.9
42499.5
47808.3
51032.1
52574.5
75168.8
74031.5
71642.7
67438.5
65248.2
57936.1
53808.6
2283.84
2296.97
23278.7
34780.4
42550.4
47867.4
51071.3
52609.7
72636
71077.5
67761.2
61867.6
51622.3
42150.5
17736.9
2298.29
2301.32
25302.2
35956.7
43744.2
48788.7
51817.4
53267.7
72570.2
71004.2
67663.9
61741.4
51448.2
41960.6
17692.7
2281.33
2315.12
25141.6
36165.2
43713
48706.3
51735.1
53180.3
72467.7
70894.5
67516.4
61567
51178.6
41440.6
17469.4
2241.88
2302.63
20512.7
35978.2
43505.3
48513.1
51562.9
53021.3
72344.3
70776.4
67309.8
61337.6
55418.5
40952.3
17379.8
2263.63
2303.67
20291.7
32196.2
43087
48191.2
51307.5
52795
72231.4
70656
67156.9
63754.4
55253
44607.7
23678.6
2296.97
2300.93
16930.5
29965.5
40171.3
47761.9
51022.3
52538.2
72134.1
70527.4
68712
63600.5
57310.9
46397.7
24807.6
2335.88
2258.83
15556.7
28255.6
39493.3
45766.2
50720
52301.6
72033.1
70409.1
68654.1
63405.6
58138.9
46330
25217.2
2273.57
2301.72
14072.3
27367.8
37828
45402.3
50498.1
52127.1
71956.3
70336
68572.7
64710.9
57973.7
46136.2
24531
2278.84
2284.17
13554.5
26933.2
37021.8
45237.9
50418.2
52058.8
71933.3
70310.2
68543.5
64684.5
57932.7
46065.5
24404.8
2306.34
2286.68
14405.6
27175.3
37104
45324.6
50493.8
52117.5
71938.3
70337.2
68574.6
63347.6
58032.2
46115
24421.4
2295.16
2298.26
15747
27916.2
38097.6
45613.9
50703.5
52278.9
71952.3
70382
66900.4
63568.5
57179.3
46206.3
24435.2
2287.28
2294.53
16600
28722.1
39900
47721.7
50977
52482.5
71996.3
70438.7
67001.4
61088.6
55209.8
40899.4
19032.9
2279.69
2277.68
18130.5
31991.7
43040.4
48128.1
51229.5
52706.4
72062.4
70505.2
67165.2
61291.3
51035.1
41231.1
17513.7
2260.08
2302.96
20286.8
35986.8
43467.6
48439.4
51460.5
52902.9
72117.2
70571
67277.4
61440.9
51278.2
41685.8
17648.8
2292.32
2301.8
24990
36331.2
43693.7
48633.8
51615
53039.1
72141.4
70605.6
67342.4
61549
51456.5
42011.2
17744.5
2281.94
2304.31
25489.3
36505.2
43839.5
48738.8
51690.8
53104.6
71864
70254.5
66799.1
60853.3
50285.8
39298.8
5487.6
2302.23
2302.46
29705.2
40639.7
47782.1
52054.7
54584
55777.9
71780.5
70161.1
66669.3
60645.8
50076.5
38806.4
4304.05
2257.72
10402.8
31662.6
41304.6
47809
51989.7
54481.3
55667.3
71647.8
70017.1
66475.3
60366
50382.8
37104.7
6691.17
2297.51
2328.15
24636.9
40931.9
47421.3
51677.2
54238.8
55453.9
71484.4
69857.8
66261.9
60140.3
52282.4
36046.5
8023.64
2264.04
2308.71
24180.7
35990.8
46830.1
51211.1
53882.6
55153
71329.1
69708.5
66143.7
61404.2
51829.4
38386.9
17163.2
2294.45
2299.03
19106.2
32731.1
43003.6
50634.9
53479.8
54815.1
71194.3
69572.8
66878.6
61134
53065.5
39347.7
17320.2
2358.55
2277.72
16462.7
29917.9
41886
47924.7
53111.2
54498.9
71057.9
69418.5
66762.9
60911.7
53498.6
39099.8
16921.8
2305.23
2293.17
12962.5
28144.6
39446.7
47363.6
52836.1
54286.5
70962.7
69317.8
66666
61762.8
53286.8
38886
16844.2
2296.95
2324.32
11181
27151.4
38185
47135.5
52745
54216
70926.8
69285.2
66633.8
61725.8
53262.9
38902
16930.2
2294.06
2310.66
11282.2
27340.4
38306.7
47275.5
52864.4
54302.6
70938.9
69318.8
66647.4
60852.3
53426.1
39140.4
17243.5
2345.51
2305.12
15468.7
28930.7
39891.2
47727.6
53152.4
54521.9
70968.6
69346.8
65791.3
61091.9
52977.5
39400.7
17252.5
2273.91
2294.94
18004.2
30676.5
42613.2
50662.4
53487.6
54805.7
71039.6
69418
65841.4
59780.8
51864.1
36350.9
16817.7
2287.22
2299.52
20767.5
35550.6
46827.1
51195.9
53854.5
55113.1
71137.6
69519.1
66009
59980
50126.7
36486.4
7400.68
2279.9
3398.25
24302.9
41025.6
47466.8
51668.8
54191.9
55386.6
71220
69618.5
66172.4
60255.6
49865.9
38723.9
5516.09
2270.93
7227.1
31865.1
41524.3
47842.9
51972.1
54414.6
55576
71261.9
69676.2
66279.1
60484.8
50142.6
39597.4
5630.85
2257.85
9934.76
32229.5
41884
48091.7
52132.5
54528.8
55672.2
73501.9
72311.7
69774.5
65729.7
56994.8
47646.1
9654.03
2328.94
23280.5
45068.2
50341.2
55021.4
57668.7
59247.1
60002.3
73401.3
72193.5
69603.3
65396.2
56322.5
46861.2
2787.08
2316.94
29665.5
46152.2
50802.3
55019.7
57579.5
59121.8
59872.7
73240.1
72011.9
69368.9
64906.3
58228.7
44039.5
13830.3
5676.08
16300
36164.9
50378.8
54398
57143.3
58812.3
59611.9
73039.4
71783.6
69035.6
64456.4
56918.3
42552.2
14908.2
2298.35
10786.7
34520.1
44451.1
53661
56559.5
58388.3
59257.5
72842
71562.9
68799.6
64064.5
55802.8
42118.6
19401.1
2309.21
6049.87
26332.2
40048.5
49162.3
55920.9
57911.2
58869
72665.8
71393.5
68510.7
63466.1
55467
41647.4
18475.8
2306.54
2347.64
20470.9
35752.7
47728
52673.8
57525.7
58525.9
72489.9
71190.4
68233.1
63091.3
55176.6
40898.9
17672.6
2292.93
2266.98
11630.7
32514.6
44594.2
52014.2
57230.7
58288.6
72369
71056.5
68077.9
63170.8
54810.9
40499.7
17854.2
2414.99
2671.19
19364.4
30739.3
42812.7
51761
57142
58217.3
72314.1
71005.2
68028.6
63110.8
54770.3
40555.8
17921.2
2253.42
2678.43
9109.86
31029.2
42982.1
51933.3
57279.1
58319.1
72327.3
71043
68064.2
62987.7
55060.7
41206.8
19522.7
2155.53
3470.43
17612.3
33782.9
45162.3
52464.5
57592.9
58567.9
72369.4
71072.8
68283.6
63346.4
55369.5
42127.1
21482.9
2844.9
2324.6
23365.7
36771
48623.2
55973.2
57942.3
58884.3
72463.4
71197.4
68435.2
63870
55934.4
42166.1
19272
2337.46
2939.8
28576.1
43509.8
53643
56558.6
58373.8
59231.4
72589.5
71359.5
68719.6
64299.5
57708.8
43230.5
14453.9
2367.28
14163.9
35484
50446.2
54449.6
57137.5
58772.6
59551
72697
71497.1
68935.7
64832.2
56135.9
46836.3
8355.53
2321.48
32781.3
47169.5
50961.5
55006.4
57529
59037.8
59779.7
72755.9
71582.9
69094.5
65212.4
57015.7
48011.5
18237
5974.19
35158.8
47771.8
51495.3
55336.1
57733.3
59175.8
59887.8
77069.3
76642.8
75801.1
75678.3
74264.3
82972.9
115223
113641
90441
72442.9
65404
65163.1
65010.8
65216.1
65376.4
76956.8
76499.2
75594.2
75251.5
73463.9
81906.2
117889
91980.8
79654.7
69269.7
64769.2
64829.9
64827.3
65058
65231.3
76771.5
76267.9
75298.4
73951.6
73412.2
66898.8
68273.5
51716.6
51664.6
58629.2
63539
63814
64266.1
64689.3
64934.9
76534.8
75966.7
74788.7
73158.4
68243.5
62018.1
48084.7
20103.8
31866.9
55212.7
58138.8
62800.6
63606.9
64236.8
64556.2
76297.7
75672.1
74412.1
70840.9
66711.5
57290.4
34775.8
5424.44
21906.6
43850.2
53008
58578.4
62931
63742
64157.3
76085.5
75440.4
72944.1
70064.8
64484.3
54381.2
31671.5
2386.67
2493.41
35769
48059.2
57164.4
59747.8
63351.3
63832.3
75873.3
75193.3
72528.3
69583.5
63266.2
52664.7
29837.4
2277.37
2125.86
26625.8
44134
53708.1
59092.7
63073.1
63599.2
75723.2
75022.1
72307.7
68713.7
62645.8
51552.1
27886.5
2107.4
2457.25
18654.8
41654.4
51700.6
58922.9
63011.2
63541.2
75641.6
74934.2
72214.9
68596.7
62479.9
51364.4
27832.9
2297.12
2276.49
18288.3
41984.5
51881.1
59097.8
63139.6
63644.5
75644.8
74958.3
72257
69269.4
62805.9
52179.5
29389.9
2247.57
2302.63
27637.5
44935.8
54241.9
59556.1
63431.7
63885.5
75687.9
75012.2
73640.6
69598.6
63944.6
54030.2
34770.9
2407.27
2316.52
35218.1
48471
57928.6
62982.5
63774.2
64177.6
75800.1
75192.4
73928.6
72172.7
66395.9
59961.5
38958.6
3880.07
23200.9
46781.8
56731.4
62718.8
63572.8
64199.8
64517.6
75951.7
75419.7
74389.4
72962.9
72335.8
63241.5
58449.9
64393.7
51120
56659.8
63307
63732.3
64194.4
64615
64851.7
76078
75604.9
74667.2
74276.8
72790.9
79992.1
117268
93084.2
80480.2
68703.7
64440.8
64588.9
64632.3
64889.9
65079.1
76146.8
75714.7
74859.2
74699.8
73722.1
81072.3
113259
115213
86607.5
70550.5
65305.5
65038.7
64866.4
65036.3
65192.2
81487.3
81826
82449.9
85362.2
89340.1
95480.3
119860
114029
105338
87397.7
78729.9
75057.6
72485.6
71510.5
71107.1
81386.3
81696.4
82322.4
85202.8
89373.1
96201.4
125675
128057
103752
86271.6
78001
74500.1
72249.6
71328.3
70955.9
81205.4
81428.6
82105.3
83738
88396.2
92230.5
116328
145253
109508
85077.3
76534.4
73412.1
71670.6
70933.3
70649
80961.1
81105.4
81524.5
82768.7
83029
90089.1
112721
150964
105769
81738.8
73848.9
72156.3
70999.2
70479.8
70273.5
80707.7
80777.9
80991.5
79806.6
80980.9
82454.7
90865.1
151435
89989.5
73969.3
69944.2
69315.4
70266.4
69988.9
69878.5
80484
80430.7
79022.1
78925.5
77909.1
77382.3
80262.5
109346
71357
67023.6
65938.2
68143.4
67916.7
69574.5
69572.8
80255.2
80156.1
78630.2
78336.6
75894.7
74834.3
70939.1
21215.3
44737.4
59495.6
62966.3
65725.9
67481.2
69337.3
69371.9
80084.1
79963.5
78381.9
76878.3
75170.5
73247.3
65440.9
3175.55
4465.73
52627.8
61220.2
64213.1
67390.3
69316.2
69339.5
79969.6
79833.2
78233.6
76669.3
74799.3
72571.3
64719.6
2544.23
2278.8
51662
61560.6
64487.1
67600.2
69442
69440.5
79942.6
79828.5
78206.3
77713.1
74848.3
72926.8
67134.8
46703.3
30698.7
57979.2
63541.8
66354.6
67975
69708.9
69658.6
79958.3
79948.3
79974.4
78108.9
76415.5
74671.4
71608
72457.9
62847.7
65450.7
66049.4
68805.8
70397.6
70053.4
69913.4
80063.4
80131.8
80372.3
81281.5
80273.4
84528.6
91867.9
131459
86712.2
74793.9
72140.1
72006.4
70933
70426.2
70220.7
80211.6
80372.8
80904.8
82262.1
86478.6
89134.5
110919
138531
103601
82418.5
75843
73086.4
71489.8
70790.1
70516.8
80325.1
80585
81100.6
83717.4
87930.5
93268.5
122680
123838
100930
84352.7
77188
73958.3
71871.8
71048.2
70720.8
80376.7
80668.8
81196.8
83781.3
87654.1
92468.6
112710
106400
99614.8
84866
77756.2
74338.7
72069.3
71179.8
70820.6
85494.2
86166.5
87141
89787.8
93663.7
93239.6
99487.5
100993
96763.2
89111
84762.3
81278.9
78317.1
77002.7
76323.9
85448
86119.6
87192.8
90083
94260.1
94839.2
100887
105287
97551.8
90099.8
84846.9
81031
78196.7
76852.3
76195.5
85344.5
85939.7
87301.3
89757.8
94081.3
96985.6
102971
113259
99552.5
91620.1
84300.3
80464.6
77834.1
76525
75930.6
85168.1
85727.7
87000
89699.8
91556.9
99092
110790
126590
107981
91807.1
83726.9
79684.2
77328.5
76126.1
75598.2
84944.8
85444
86623.9
87295.7
91145.6
97459.3
113067
141955
112351
92189.7
82441.9
78178.8
76681.4
75664.5
75223.8
84711.1
85035.7
85029.8
86641.8
88940.2
95210.9
111344
127814
115916
91135.5
81049.3
77563.8
75329.6
75215.2
74921.4
84485.7
84762.6
84736.8
86219.1
87730.8
94635.7
110624
132473
129577
90390
80295.2
76702
75065.6
75004.5
74742
84305.5
84557.8
84469.4
84988.8
87304.3
94536.5
114233
155161
112040
89946.2
81543.3
76800.3
75140.9
75023.5
74739.9
84157.8
84397.5
84258.8
84701.9
86813.5
93404.9
109471
144095
117627
91877.6
83208.3
77503.8
75446.7
75182.1
74848.1
84089.2
84348.5
84128.9
85309.3
86413.1
92189.8
106440
142175
118935
92488.1
82835.6
77911
75716.2
75427.8
75049.8
84079.3
84470.9
85361.8
85558.1
87100.5
91998.5
105624
137582
115948
91743.8
82228.8
78360.2
76944
75777.8
75281.2
84137.3
84594.2
85625.1
87883.6
89089.9
95745
106879
127301
107995
90890.2
82867.3
79578
77270.7
76069.2
75533.4
84211.3
84722.5
85897.1
87989.3
91904.2
95151.8
102192
113150
97848.9
89938.1
83536.6
80012.9
77571.5
76315.5
75745.2
84241.6
84841.4
85782
88276.9
92646.2
92333.5
98893.3
101149
95140.6
88393.5
83950.4
80328.5
77735.3
76490.4
75887.8
84233.1
84830.1
85679.8
87904.8
91584.4
90858.4
95679.9
97698.7
94532.7
87485
83709.1
80360.7
77786.4
76560.2
75946.7
88408.9
88992.8
89646.1
90775.5
93240
92228.4
93295.5
97106.2
91771.7
88662.2
86649.7
84356.3
82198.3
81162.1
80507
88429.8
89036.9