/*--------------------------------*- C++ -*----------------------------------*\
| =========                 |                                                 |
| \\      /  F ield         | OpenFOAM: The Open Source CFD Toolbox           |
|  \\    /   O peration     | Version:  v2012                                 |
|   \\  /    A nd           | Website:  www.openfoam.com                      |
|    \\/     M anipulation  |                                                 |
\*---------------------------------------------------------------------------*/
FoamFile
{
    version     2.0;
    format      ascii;
    class       volScalarField;
    location    "0.018";
    object      p_rgh;
}
// * * * * * * * * * * * * * * * * * * * * * * * * * * * * * * * * * * * * * //

dimensions      [1 -1 -2 0 0 0 0];


internalField   nonuniform List<scalar> 
449343
(
102439
102575
102800
103019
103115
102867
102083
100687
98728.2
96417.3
94047.9
91898.1
90164.9
88962.7
88349.8
102440
102575
102801
103019
103116
102866
102082
100686
98728.4
96419.1
94050.4
91899.9
90165.1
88961.6
88347.9
102440
102575
102802
103020
103115
102863
102076
100681
98726.7
96421.3
94054.4
91902.8
90165.1
88958.8
88343.6
102439
102575
102802
103019
103113
102854
102066
100669
98718.9
96419.1
94057.1
91904.9
90163.4
88953.5
88336.3
102439
102575
102801
103016
103109
102842
102049
100651
98705.5
96412.3
94056.7
91904.3
90158.7
88944.6
88325.1
102436
102573
102799
103012
103101
102826
102028
100629
98687.7
96401.6
94051.2
91898.9
90149.3
88931.3
88309.7
102431
102568
102794
103005
103090
102810
102006
100604
98665.6
96385.8
94037.6
91886.9
90133.9
88912.9
88289.9
102425
102561
102786
102995
103077
102793
101983
100577
98637.2
96361.5
94015
91864.7
90111
88889.6
88266.5
102415
102551
102775
102983
103064
102777
101968
100561
98616
96332.5
93983.2
91833.4
90082.1
88862.7
88240.7
102405
102539
102762
102969
103051
102765
101955
100544
98592.6
96300.5
93948.3
91797
90050
88834.7
88214.7
102394
102528
102749
102955
103039
102756
101946
100532
98573.8
96272.2
93913.4
91761.9
90019.3
88808.4
88190.9
102384
102517
102737
102943
103029
102751
101944
100528
98561.8
96251.2
93884.3
91731.9
89993
88786.1
88170.8
102376
102508
102727
102933
103021
102748
101941
100525
98552.9
96235
93861.9
91708.9
89972.8
88769
88155.5
102370
102501
102720
102926
103014
102744
101938
100521
98545.7
96223.1
93846.6
91693.4
89959.2
88757.5
88145.2
102367
102498
102716
102923
103011
102742
101936
100519
98541.5
96216.7
93838.8
91685.7
89952.5
88751.8
88140
102290
102473
102799
103172
103448
103424
102779
101321
99110.9
96460
93789.2
91437
89590.2
88331.9
87696.8
102290
102473
102800
103173
103450
103424
102777
101321
99112.6
96464.6
93794.5
91440.3
89590.8
88330.6
87694.5
102290
102474
102802
103176
103452
103423
102773
101318
99115.6
96473.6
93805
91446.6
89591.6
88327.4
87689.3
102290
102475
102805
103179
103452
103414
102758
101300
99107
96477.6
93816.5
91453.7
89591
88321.3
87680.6
102289
102475
102807
103181
103451
103394
102735
101277
99078.8
96476.4
93827.3
91459.3
89587.3
88311.1
87667.5
102287
102474
102808
103182
103448
103379
102709
101251
99063
96469.3
93831.1
91459.7
89578.7
88296.1
87649.9
102283
102471
102805
103178
103436
103366
102686
101222
99039.3
96460.2
93836.7
91454.8
89563.1
88276.2
87628
102276
102464
102797
103169
103424
103347
102656
101141
98999.2
96429.8
93813
91431.2
89538
88251.1
87602.7
102267
102454
102786
103155
103409
103332
102644
101174
98981
96398.2
93774
91395
89506.8
88222.6
87575.9
102256
102441
102771
103138
103396
103313
102628
101154
98953.1
96353.5
93715.2
91347.1
89471.3
88193.4
87549.9
102245
102428
102755
103119
103379
103303
102624
101144
98928.9
96318.1
93667.5
91303.4
89437.7
88167.2
87526.9
102235
102417
102740
103104
103365
103307
102628
101146
98933.3
96292.2
93627.5
91267.2
89410.1
88145.8
87508.3
102227
102407
102729
103092
103355
103305
102631
101152
98927.9
96272.2
93598
91240.4
89389.5
88129.8
87494.5
102221
102401
102721
103083
103346
103300
102629
101148
98918.9
96256
93578.2
91223
89376.1
88119.4
87485.5
102218
102398
102717
103079
103342
103297
102628
101146
98914.4
96248
93568.9
91214.6
89369.6
88114.2
87481
101907
102199
102754
103491
104238
104783
104551
102938
100055
96512.5
93102.2
90289.8
88195.6
86817.6
86135.9
101907
102200
102756
103495
104243
104786
104551
102940
100061
96524.7
93113.9
90296.1
88196.8
86815.7
86132.5
101907
102201
102761
103503
104253
104792
104546
102945
100076
96553.4
93140.8
90309.7
88198.8
86811.2
86125.2
101906
102202
102767
103515
104267
104786
104516
102933
100054
96577.6
93181.1
90329.6
88199.9
86802.6
86112.9
101905
102205
102775
103527
104274
104752
104433
102837
99982.5
96610.1
93219.5
90347.5
88197.3
86788.6
86094.7
101903
102207
102785
103540
104291
104724
104385
102806
99967.3
96624.7
93260.5
90361.2
88187.3
86768.5
86070.9
101899
102204
102785
103547
104274
104717
104353
102770
99934.1
96615.4
93354.7
90368.7
88172.3
86743.5
86043.2
101893
102199
102779
103542
104268
104709
104345
102744
99881.2
96573.9
93318.8
90339.1
88142
86713.9
86013.6
101883
102188
102766
103524
104244
104677
104299
102701
99851.9
96532.5
93271.8
90294.4
88105.3
86682
85984.6
101873
102174
102747
103495
104234
104649
104287
102684
99817.8
96471.8
93108.9
90220.6
88060.3
86651.5
85959.2
101861
102158
102723
103465
104197
104652
104300
102670
99785.2
96406.7
93017.7
90158.2
88023.3
86626.7
85939.2
101852
102145
102704
103439
104174
104670
104366
102747
99835.8
96347.2
92950.6
90110.1
87994.3
86608.4
85924.8
101845
102136
102689
103419
104154
104670
104389
102754
99853.8
96314.9
92899
90074.6
87974.2
86595.7
85915
101840
102129
102680
103406
104139
104660
104392
102749
99842.1
96286.1
92868.2
90053.7
87961.8
86588
85909.1
101838
102126
102675
103400
104132
104657
104392
102747
99836.2
96274.2
92855.6
90044.5
87956.2
86584.4
85906.4
101162
101613
102512
103833
105445
107063
108004
106094
101731
96321.1
91656.5
88201.9
85811.6
84309.7
83587.6
101161
101612
102514
103840
105456
107073
108001
106103
101743
96345.7
91677.1
88210.8
85812.1
84305.9
83582.1
101158
101612
102521
103856
105481
107098
108005
106137
101802
96423.9
91730
88231.1
85812.9
84297.7
83570.2
101155
101614
102533
103887
105519
107140
107850
106169
101751
96570.4
91834.5
88263.6
85811.1
84282.6
83550.5
101150
101615
102548
103913
105561
107078
107062
105834
102511
96725.4
91940.3
88300.3
85801.2
84257.9
83521.6
101148
101620
102576
103985
105643
106279
106922
105791
102536
97959.5
92076.1
88330.6
85782.5
84222.5
83484.7
101140
101619
102584
104001
104973
106298
106862
105720
102469
97940.3
93320
88322.1
85747.8
84184.1
83444.8
101135
101617
102588
104002
104962
106300
106858
105584
102410
97892.7
93253.3
88279.9
85714.9
84148.9
83406.7
101126
101603
102567
103978
104942
106266
106805
105616
102359
97832.5
93207.4
88227.2
85663.8
84110
83376.4
101118
101588
102539
103938
105581
106208
106783
105606
102318
97770.4
91841.3
88138.1
85621.6
84082.6
83355.2
101108
101570
102497
103851
105477
106970
106890
105628
102299
96440
91657.3
88052.6
85587.3
84068.1
83344
101102
101558
102471
103812
105421
107014
107667
105922
101440
96246.2
91526.6
87988
85566.5
84060.2
83339.4
101098
101550
102452
103776
105381
106978
107829
105906
101526
96121.1
91429.5
87949.9
85554.1
84056.4
83338.3
101097
101545
102441
103756
105354
106956
107831
105885
101483
96057.3
91384.3
87930.2
85547.7
84055
83338.6
101096
101543
102437
103748
105343
106947
107838
105883
101479
96040.4
91368.8
87922.6
85545.3
84054.8
83339.2
99853
100477
101773
103834
106723
110344
114238
111578
104260
95142.6
88747.4
84763.9
82235.2
80732.7
80038.6
99848.2
100474
101773
103842
106740
110367
114240
111592
104299
95192.3
88776.9
84771.5
82231.9
80725
80029.3
99839.2
100468
101776
103861
106789
110432
114277
111641
104425
95317.5
88849
84787.2
82224.2
80708.7
80009.5
99828.3
100464
101789
103930
106962
110624
111957
111775
106066
95902.5
89086.1
84831.7
82208.4
80680
79976.9
99812.4
100453
101804
103983
107037
109098
111931
111732
106204
98194
89274.6
84847.2
82171.4
80631.4
79928.9
99803.7
100461
101859
104185
106158
109271
111938
111595
106146
98381.8
91467
84892.9
82096
80570
79868.9
99785
100442
101845
103577
106213
109349
110960
110831
106380
99313.5
91588
86704.6
81968.9
80486.5
79804.2
99782
100446
101906
103579
106244
109360
110941
110745
106311
99253
91570.1
86697.9
82017.2
80432.1
79758.8
99771.4
100427
101830
103554
106215
109327
110883
110691
106205
99155.2
91464
86620.1
81857.9
80396.3
79724.2
99774.3
100429
101823
104138
106101
109200
110917
110667
106137
98084.1
91229.9
84619.8
81886.5
80400.6
79718
99772.3
100411
101756
103925
106953
109034
111723
111309
105704
97856.5
88835.5
84503.7
81901.9
80407.2
79725.7
99778.1
100411
101731
103861
106869
110486
111745
111484
105797
95392.8
88649.6
84474.6
81913.2
80424.4
79740.4
99783.2
100410
101713
103790
106700
110325
114090
111426
104068
94911.5
88464.7
84447.2
81924.9
80438.8
79754.8
99788
100412
101707
103768
106651
110267
114072
111381
103989
94831.1
88421.6
84445
81934.3
80449.8
79766
99790.9
100413
101706
103760
106636
110248
114080
111372
103967
94800
88406.6
84445.5
81939.9
80455.9
79772.1
97728.9
98478.1
100095
102861
107265
114195
119829
125323
111830
90702
83175.8
79428.9
77209.3
76010.2
75492.7
97718.1
98468.5
100088
102864
107287
114223
119840
125331
111834
90731.4
83192.1
79422.8
77197
75996.4
75478.1
97696.5
98447.6
100072
102856
107308
114288
119866
125369
111884
90801.9
83211.6
79395.5
77167.8
75966.3
75447.2
97668.7
98429.3
100072
102914
107697
112114
119991
125554
112031
95400.3
83418.5
79322.2
77114.8
75916.6
75396.7
97628.9
98383.3
100033
102975
106464
112392
120315
123170
113509
96349.9
86786
79220.5
76964.1
75820.5
75320.6
97601.1
98352.3
100080
102548
106563
111436
118509
122085
113591
98634.6
86903.1
81602
76766.2
75684.4
75224.9
97565.2
98304
100059
102579
106692
111455
117540
121965
113873
99418.6
88516.8
81551.5
76575.9
75543.3
75126.9
97546.6
98271.2
100054
102629
106033
110922
117508
121816
113612
99196.6
88326
81432.5
78500.7
75437.6
75065.1
97550.8
98289.4
100042
102591
106013
111379
117467
121730
113460
99018.5
88179.4
81298.8
76417.8
75434.7
75035.3
97574.2
98323.3
100050
102495
106624
111402
117406
121717
113411
98874.8
88119.4
81264.2
76498.4
75484.1
75053.7
97590.2
98344.5
99990.8
102926
106402
112349
118229
122683
112839
97662.9
86251
78729.6
76624.9
75561.7
75094.7
97621.6
98380.6
100022
102859
107630
112051
119848
125214
111449
94914.6
82805.4
78865.8
76767
75630.4
75139.3
97644
98394.9
100018
102799
107240
114195
119733
125117
111458
90235.3
82724.5
78991.1
76830
75673
75176
97662
98412.4
100032
102806
107220
114138
119715
125127
111486
90268.4
82769.4
79051.6
76871.4
75703.8
75202.5
97671.2
98420.8
100038
102804
107202
114117
119727
125139
111494
90261.6
82776.7
79073.7
76890.9
75719.2
75216.2
94568.6
95295.5
96915.3
99854.7
104851
111689
128174
158191
116361
83356.6
72939.3
71442.5
70550.6
70204.2
70084.4
94549
95275.3
96894.2
99833.1
104839
111682
128158
158177
116173
83263.5
72895.9
71401.9
70526.1
70183.5
70064.3
94507.7
95227.6
96835.8
99753.1
104724
111662
128087
158157
116144
83328.7
72842.6
71334.3
70473.7
70137.3
70022.3
94450.4
95163.7
96764.2
99522.4
104089
112023
128098
158098
116289
83761.3
76456.5
71039.5
70371
70056.7
69954
94367.5
95055.1
96559.4
99572.4
104095
111124
125164
158073
118218
88283.7
76386.5
73346.9
70080.4
69916.7
69849.5
94287.5
94900.2
97006.5
99610.8
103818
111068
123724
153060
123291
90562.4
78664.5
73086.4
71746
69700.7
69720.5
94234.4
94839.2
96983.5
99586.2
103822
110615
123576
152807
122610
90064.9
79662.1
74538.8
71572.8
69584.9
69616.6
94194.7
94799.4
97028.4
99596.7
103802
110565
123492
152606
121695
89329.3
79280.2
74317.7
71462.4
69520.3
69531.8
94221.2
94826.1
96977.3
99608.2
103816
110557
123478
152559
121457
88973.2
79024.2
74167.9
71336.4
69474.3
69520.7
94260
94873.3
96985.4
99552.3
103816
110587
123535
152619
121406
88811.9
78890.5
74108.1
71360.6
69484.5
69539.8
94330.1
95018.3
96523.3
99528.2
104048
111074
123671
152742
121190
88640.9
77664.8
72586
69686.2
69639.7
69613.5
94405
95120.3
96725.6
99488.1
103933
111899
125125
157807
115540
86836.1
75515.6
70510.6
69985.5
69755.5
69690.4
94457.2
95179.6
96791.8
99716.1
104699
111632
128072
157988
115565
82667.2
72278.5
70888.7
70116.4
69837.7
69750.4
94495.2
95224.6
96850
99798.6
104820
111689
128146
158111
115689
82724.8
72428.5
71009.3
70192.7
69891.2
69792.5
94513.4
95243.9
96870.6
99821.3
104837
111689
128195
158161
115771
82753
72491.5
71068.1
70228
69916.4
69814.2
90307
90757.6
91754.4
93567.8
96525
103200
110524
107861
28267.3
53696.6
58261.9
60986.4
62689.4
63757.2
64239.5
90279.4
90727.1
91719
93521.3
96483.8
103157
110493
107767
24860.7
53385.6
58138.3
60936
62665.2
63734.2
64217.2
90219.8
90654.5
91633.5
93431.2
96347.6
103041
110388
107671
24260.7
53427.4
58146.2
60935.2
62633.7
63691.6
64174.8
90133.4
90536.8
91486.4
93128.7
97599.6
102609
110109
107479
24937.3
54104.8
59821.2
61058.5
62599.7
63622.4
64111.4
90011.9
90380.9
91242.5
94226.2
97313.2
102980
110844
107190
35835.3
59215.3
61830.3
62453.3
62551.1
63535.3
64019.8
89875.9
90219.5
92341.9
94077.7
97740.2
103164
110589
106785
43468.1
60593.2
62955
62460
63654
63468.2
63911.7
89816.1
90150.5
92290.6
93971
97955
103060
110437
106622
35792.7
59354
62682.4
63293.1
63502.8
63412.4
63840.8
89783.8
90106.5
92241.9
94583.1
97929.2
103008
110379
106594
26090.6
57641.1
62163.7
63622.4
63426.2
63373.4
63774.2
89800.6
90135.4
92237.8
94572.1
97927.3
103012
110401
106696
26798.2
57096.8
61808.7
63431.5
63303.2
63308.7
63753.3
89846.1
90192.2
92289.6
93976.9
97944.8
103072
110504
106896
28675
56954.4
61588.9
62794.6
63255.7
63277.1
63747.3
89971.8
90343.1
91210.9
94114.3
97756.5
103184
110688
107169
24704.7
56482
61326.9
61727.4
62190.9
63270.2
63797.8
90085.1
90493.4
91452.9
93111.1
97477.2
102314
109905
107618
23902.3
54472.2
58769.4
60496.7
62215.3
63336.7
63866.5
90166.5
90607.4
91599.5
93418.2
96363.3
102853
110316
107827
23566.4
52620.6
57538.9
60495.6
62296.8
63416.8
63927.8
90223
90677.6
91684.1
93508.8
96502.5
103163
110542
107997
23850.3
52728.3
57680.6
60569
62360.5
63470.9
63974
90249.4
90707.3
91719.5
93556.2
96546.2
103240
110632
108099
23852.7
52805.4
57793.2
60631.1
62395.2
63500.8
64001
85207.7
85144.6
84991
84749
84785
88839.5
92532.5
105546
13314.2
32574.3
44545
51013.4
55226.2
57672.6
58764.9
85177.5
85111.1
84954.4
84706.4
84754.4
88788.7
92488.7
105355
3849.87
32320.4
44428.4
50987.6
55208.2
57650.4
58743.1
85115.7
85040.6
84879.7
84670.3
84687.5
88665.1
92366.3
105246
3062.21
32420.9
44500.8
51027.6
55203.9
57625.1
58708.5
85029.7
84925.3
84759.2
84679.7
87389
88577.3
92114.1
105090
4751.15
32945.4
45000.8
51281.6
55242.6
57604.5
58668.7
84920.2
84793.4
84672.3
86613.4
87367.8
90332.5
93103.8
104981
2337.1
34015.8
45963.8
52152.6
55306.2
57594
58622.8
84802.3
84737.5
86206.1
86490.3
88540.5
91051.9
92918.7
104454
4271.92
34676.6
46404.1
52096.3
55934.9
57578.6
58569
84756.6
84701.2
86078.3
86429.7
89125.6
90922.6
92781.8
104212
2026.1
33846.7
46142.7
52349.7
55836.2
57524.5
58516.5
84727.1
84664.7
86011.6
87374.3
89062.8
90857.4
92717.4
104081
3026.05
33148.9
45762.4
52408.9
55722.6
57485.3
58461.7
84736.6
84682
86008.5
87363.8
89061.2
90859.2
92732
104217
2323.41
32446
45469
52262.8
55651.9
57435.3
58446.3
84765.3
84703.7
86066.8
86448.8
89109.8
90933.1
92826.9
104420
2326.13
32232.7
45308.2
51960.9
55650.5
57418.4
58439.3
84869.7
84746.2
84633
86489.2
88574.4
91088.6
92993.6
104657
2373.97
32070.6
45177.3
51517.2
55006.2
57384.5
58447
84970
84872.5
84720.9
84664.4
87409.7
88723.1
92320.4
105183
2375.6
31942.7
44465.5
50862
54935.8
57378
58474.2
85050.4
84984.1
84841.7
84659.2
84710.3
88657.4
92315.5
105240
2746.22
31957.5
44087.8
50705.1
54948.5
57414.9
58518
85108.8
85052.3
84916.3
84698.4
84780.9
88789.3
92515.7
105411
3256.76
31926.5
44119.8
50724
54981.7
57451.8
58559.3
85137.6
85085.1
84953.5
84742.9
84812.3
88883.8
92619.9
105512
2921.48
31899.4
44207.8
50749.8
55008.4
57484.1
58587
79957.9
79326.8
78009.5
75897.9
75599.5
74610.8
77179.6
5115.62
24377
37056.7
44749.4
50049.9
53211
54677.9
79929
79295
77975.2
75862.2
75557.1
74555.4
77121.3
2182.02
24240.8
37033
44745
50026.7
53183.7
54650.7
79876.3
79241.8
77912.2
75808.6
75535.1
74483.6
76983.4
2214.51
24089.1
37124.3
44738.8
49999.5
53147.3
54605.6
79814.1
79173.1
77829.3
75894.4
75769.1
74350.4
76752.2
2229.04
24258.3
36269.7
44902.1
49988.6
53112.7
54550.3
79754.2
79111.5
77895.5
77851
76277.4
76347
77361.7
2285.32
22502.6
35867.2
44555.9
49944.1
53078.9
54494.3
79694.2
79169
79281.5
78072.7
77550.9
77256.6
77274.6
2265.79
21770.3
35467.6
44404.4
49858.7
52971.8
54434.2
79667.7
79159.8
79208.4
78106.1
78271.8
77224.3
77190.7
2247.36
21494.8
35218.4
44125.3
49751.5
52869.8
54359.5
79637.6
79134.9
79159
78941.6
78319.8
77172.3
77095.2
2349.34
21622.2
35052
43960
49640.4
52828.1
54306.6
79640.1
79133.5
79150.6
78945.8
78309.7
77152.5
77062.9
2345.95
21515
34985.5
43901.4
49624.6
52821.1
54318.3
79642
79120.2
79200.4
78090.8
78245.9
77178.8
77114.3
2305.3
21564.4
35021.1
43982.5
49692.3
52883.2
54357.8
79682.8
79044.9
77840.2
77787.3
77489.7
77220.3
77229.4
2317.35
21668.6
35088.5
44221.8
49809.3
52963.4
54390
79730.1
79098
77774.1
75871.3
75793.8
74512
76515.6
2316.25
22565.5
36026.6
44715.5
49822.5
52988.9
54438.2
79784.5
79161.1
77855.8
75790.2
75525.6
74483
76938.9
2358.3
23888.8
36968.1
44587.4
49870.9
53034.4
54499.4
79832.7
79211.7
77919.3
75847.8
75584.2
74586.7
77129.5
2382.8
24116.5
36963.6
44655.4
49924.3
53084.6
54553.6
79859.9
79242.7
77954.5
75885.9
75587.6
74647.1
77229.7
2392.8
24188.1
37018.6
44666.7
49965.2
53121.7
54587.6
75452.1
74296.6
71867.3
67595.8
65380.1
58019.8
53966.3
2361.27
2197.04
23494.5
34635.4
42565.3
47932.3
51179.7
52733.6
75419.2
74258.9
71819.4
67531.9
65311.8
57919.7
53845.5
2369.94
2188.45
23132.9
34647.3
42561.5
47887.1
51136
52689.8
75361.5
74199.1
71730.5
67393.7
65197.8
57725.3
53587.5
2270.1
2211.2
19811.9
34724.2
42463
47800.6
51051.4
52607.2
75296.6
74135.4
71589.6
67274.1
65058.5
57492
53413.9
2390.22
2238.08
20041
32307.6
42330.9
47650.3
50925.7
52478.1
75247.3
74069.1
71473.8
70109.6
64766.4
60278.9
55248.2
2187.19
2241.8
17776.6
30888.9
40650.3
47428.4
50806.9
52347.2
75204
74029.2
73302.7
69913.4
66611.4
61550.8
55449.5
2785.58
2272.58
16806.7
29862.4
40289.1
46376.4
50604.5
52218.6
75160.7
73977.7
73241.1
69735.9
67378.2
61490.6
55482.4
2237.38
2303.85
16060.1
29414.8
39332.4
46194.9
50458.5
52104.6
75120.4
73945.6
73182.3
71040.6
67312.4
61387.2
55198.7
2465.45
2352.5
16103.7
29254
38882.5
46092.8
50410.6
52054.1
75120.7
73940
73177.6
71046.4
67292.2
61337.7
55097.1
3079.45
2290.09
16696
29417.6
38920.5
46133.2
50453.7
52099.6
75126.5
73957.9
73235.7
69746.4
67348.4
61364.7
55122.5
3126.21
2314.66
17271.3
29751.2
39452.6
46290.6
50596.2
52209.2
75140.9
73969.2
71389.5
69993.8
66594.4
61453
55198.6
2968.36
2305.64
17645.4
30100.2
40459
47432.2
50792.7
52327.7
75171
74020.4
71501.1
67233.6
64945.6
57494.7
53488.6
2288.46
2307.12
18706
32178.9
42334.6
47641
50922.7
52465.7
75223.9
74075.8
71640
67362.8
65113.4
57736.5
53699.7
2426.67
2367.85
19798.5
34780.4
42489.7
47810
51049.4
52594.8
75275.3
74132
71730.3
67506.5
65296.8
57936.2
53838.9
2821.05
2388.93
23013.9
34821.7
42617.3
47926
51149.8
52692.2
75306.1
74168.9
71780.1
67575.9
65380.6
58068.5
53938.5
2287.41
2410.3
23416
34917.8
42687.7
48004.8
51208.6
52747
72498.7
70940.2
67623.9
61730.2
51484.9
42008.3
17592.2
2215.99
2219.52
25164.9
35819.3
43606.9
48651.3
51680.1
53130.4
72452.5
70886.4
67546.2
61623.6
51330.5
41838
17567.6
2281.18
2196.08
25023.9
36047.5
43595.3
48588.6
51617.3
53062.5
72369.6
70796.4
67418.3
61468.9
51080.5
41337.6
17363.9
2241.64
2213.49
20409.7
35880.1
43407.2
48415
51464.8
52923.2
72265.8
70697.9
67231.3
61259.1
55335.2
40868.9
17294
2262.74
2230.51
20208.3
32112.8
43008.6
48112.8
51229
52716.5
72172.5
70597.2
67098.1
63690.6
55189.2
44541.5
23611.2
2280.64
2242.93
16863.1
29899.3
40107.6
47703
50963.5
52479.3
72094.8
70488.2
68667.9
63556.3
57264.3
46349.9
24759.8
2307.76
2258.05
15508.9
28207.8
39449.1
45722
50680.7
52262.4
72013.5
70389.4
68629.5
63381
58110.7
46301.8
25189
2273.45
2301.51
14044.1
27339.6
37801.1
45377.8
50478.5
52107.5
71956.3
70336
68567.8
64703.5
57965.1
46127.6
24522.4
2278.76
2284.13
13545.9
26924.6
37013.2
45233
50418.2
52058.8
71952.9
70329.8
68558.2
64696.8
57943.8
46076.5
24415.8
2306.4
2286.94
14416.7
27186.3
37115.1
45339.4
50513.4
52137.2
71977.5
70376.5
68608.9
63381.9
58062.9
46145.6
24452.1
2295.27
2318.14
15777.7
27946.9
38129.4
45648.3
50742.7
52318.1
72011.2
70440.9
66959.3
63622.4
57230.9
46256.6
24485.5
2287.36
2314.7
16650.2
28772.3
39953.9
47780.6
51035.9
52541.4
72074.8
70517.2
67079.8
61167.1
55283.4
40972.9
19104.1
2279.8
2291.23
18201.6
32065.3
43118.8
48206.6
51308
52784.9
72160.5
70603.3
67263.3
61389.4
51133.2
41324.3
17604.4
2260.45
2380.52
20380
36084.9
43565.7
48537.5
51558.6
53001
72234.9
70688.7
67395.2
61558.6
51395.9
41798.7
17759.2
2295.45
2396.59
25107.8
36448.9
43811.4
48751.5
51732.7
53156.8
72278.7
70742.9
67479.8
61686.4
51593.8
42143.6
17874.5
2282.27
2426.59
25626.6
36642.5
43976.8
48876.1
51828.2
53241.9
71726.7
70117.1
66661.8
60716
50148.5
39161.5
5345.36
2269.38
2182.93
29567.8
40502.3
47644.8
51917.3
54446.6
55640.6
71662.8
70043.3
66551.5
60528
49958.7
38688.7
4181.43
2257.49
10285.1
31544.9
41186.9
47691.3
51872
54363.6
55549.6
71549.7
69919
66377.2
60267.9
50284.7
37001.7
6588.16
2297.09
2229.18
24533.8
40833.8
47323.2
51579.1
54140.7
55355.8
71406
69779.3
66183.4
60061.9
52199
35963.1
7940.26
2263.42
2228.97
24097.3
35907.4
46751.6
51132.6
53804.1
55074.6
71270.3
69649.6
66084.8
61340.4
51765.6
38320.7
17095.8
2271.37
2239.72
19038.8
32664.9
42939.8
50576.1
53421
54756.2
71155
69533.6
66834.4
61089.9
53018.9
39299.9
17272.3
2343.47
2275.25
16414.9
29870.1
41841.9
47880.5
53072
54459.6
71038.3
69398.9
66738.4
60887.2
53470.4
39071.6
16893.6
2304.06
2292.92
12934.3
28116.4
39419.8
47339
52816.4
54266.9
70962.7
69317.8
66661.1
61755.4
53278.2
38877.4
16835.6
2296.85
2324.23
11172.4
27142.8
38176.4
47130.6
52745
54216
70946.4
69304.8
66648.5
61738
53273.9
38913
16941.2
2294.44
2310.7
11293.3
27351.5
38317.8
47290.2
52884.1
54322.2
70978.1
69358
66681.7
60886.6
53456.8
39171.1
17274.1
2369.47
2332.3
15499.4
28961.4
39923.1
47761.9
53191.7
54561.1
71027.4
69405.7
65850.2
61145.9
53029
39451
17302.8
2274.12
2329.8
18054.5
30726.8
42667.2
50721.2
53546.5
54864.5
71118.1
69496.5
65919.8
59859.3
51937.7
36424.5
16888.8
2287.39
2335.23
20838.7
35624.2
46905.5
51274.3
53932.9
55191.6
71235.7
69617.2
66107.1
60078.1
50224.8
36579.6
7493.88
2280.65
3491.36
24396.1
41123.7
47564.9
51766.9
54290
55484.7
71337.7
69736.2
66290.2
60373.3
49983.7
38841.6
5628.91
2271.75
7344.8
31982.8
41642
47960.7
52089.9
54532.3
55693.7
71399.2
69813.5
66416.5
60622.2
50280
39734.7
5763.29
2258.04
10072.1
32366.8
42021.3
48229.1
52269.9
54666.2
55809.6
73364.5
72174.4
69637.1
65592.3
56857.4
47508.7
9516.84
2242.12
23143.2
44930.9
50203.9
54884.1
57531.4
59109.8
59865
73283.6
72075.7
69485.6
65278.5
56204.8
46743.4
2670.79
2267.92
29547.8
46034.5
50684.6
54902
57461.7
59004.1
59755
73142
71913.8
69270.8
64808.2
58130.6
43936.5
13727.3
5573.25
16197
36061.9
50280.7
54299.9
57045.2
58714.2
59513.8
72960.9
71705.1
68957.2
64377.9
56834.9
42468.8
14824.8
2230.6
10700.9
34436.7
44367.7
53582.5
56481.1
58309.8
59179
72783.1
71504
68740.8
64000.7
55739.1
42052.4
19333.7
2259.42
5982.42
26264.8
39982.3
49098.5
55862
57852.3
58810.2
72626.6
71354.2
68466.5
63422
55420.4
41599.6
18428
2305.46
2344.45
20423
35704.9
47683.9
52629.7
57486.5
58486.6
72470.3
71170.8
68208.6
63066.8
55148.4
40870.6
17644.4
2291.29
2266.87
11602.5
32486.4
44567.2
51989.7
57211.1
58269
72369
71056.5
68073
63163.4
54802.3
40491.1
17845.6
2414.19
2670.56
19355.8
30730.7
42804.1
51756.1
57142
58217.3
72333.7
71024.8
68043.3
63123.1
54781.3
40566.8
17932.2
2253.72
2678.7
9120.89
31040.2
42993.1
51948
57298.8
58338.7
72366.6
71082.3
68098.5
63022
55091.3
41237.5
19553.4
2155.68
3489.05
17643
33813.5
45194.2
52498.8
57632.1
58607.1
72428.3
71131.7
68342.5
63400.4
55421
42177.4
21533.2
2894.91
2358.86
23416
36821.3
48677.1
56032.1
58001.1
58943.2
72541.8
71275.8
68513.7
63948.5
56008
42239.7
19343.1
2341.6
3009.47
28647.2
43583.4
53721.5
56637.1
58452.3
59309.9
72687.6
71457.6
68817.7
64397.6
57806.9
43323.7
14547.1
2371.05
14257.1
35577.2
50544.3
54547.7
57235.6
58870.7
59649.1
72814.7
71614.9
69053.4
64949.9
56253.6
46954.1
8473.06
2364.56
32899
47287.2
51079.2
55124.1
57646.7
59155.6
59897.5
72893.3
71720.3
69231.9
65349.8
57153.1
48148.8
18374.3
6110.94
35296.1
47909.1
51632.6
55473.5
57870.6
59313.1
60025.2
76932
76505.4
75663.7
75540.9
74126.9
82835.6
115086
113504
90303.7
72305.5
65266.7
65025.8
64873.4
65078.8
65239.1
76839.1
76381.5
75476.5
75133.8
73346.1
81788.5
117771
91863.1
79537
69152
64651.4
64712.1
64709.5
64940.2
65113.6
76673.4
76169.8
75200.3
73853.5
73314.1
66795.8
68170.5
51613.5
51561.5
58526.2
63440.9
63715.9
64168
64591.2
64836.8
76456.3
75888.2
74710.2
73079.9
68160.1
61934.7
48001.3
20018
31781.1
55129.4
58055.5
62722.1
63528.4
64158.3
64477.7
76238.9
75613.2
74353.3
70777.2
66647.7
57224.2
34708.3
5356.99
21839.1
43782.7
52941.8
58514.6
62872.2
63683.2
64098.4
76046.2
75401.1
72900
70020.7
64437.7
54333.3
31623.7
2341.34
2447
35721.2
48011.4
57120.2
59703.7
63312
63793.1
75853.7
75173.7
72503.8
69559
63238
52636.5
29809.2
2258.01
2125.79
26597.6
44105.8
53681.1
59068.2
63053.5
63579.6
75723.2
75022.1
72302.8
68706.3
62637.2
51543.5
27877.9
2107.27
2456.87
18646.2
41645.8
51692
58918
63011.2
63541.2
75661.2
74953.9
72229.6
68608.9
62490.9
51375.5
27843.9
2300.52
2277.37
18299.4
41995.6
51892.1
59112.5
63159.2
63664.1
75684
74997.5
72291.3
69303.8
62836.5
52210.2
29420.6
2247.9
2316.14
27668.2
44966.5
54273.8
59590.5
63471
63924.7
75746.7
75071
73699.4
69652.5
63996.1
54080.5
34821.2
2457.48
2322.48
35268.4
48521.2
57982.6
63041.3
63833
64236.4
75878.6
75270.8
74007
72251.1
66469.5
60035
39029.7
3949.91
23270.8
46852.9
56805
62797.3
63651.3
64278.3
64596.1
76049.8
75517.8
74487.5
73061
72433.9
63334.7
58543.1
64486.9
51213.2
56753
63405.1
63830.4
64292.5
64713.1
64949.8
76195.7
75722.6
74784.9
74394.6
72908.6
80109.8
117386
93201.9
80597.9
68821.4
64558.5
64706.6
64750
65007.6
65196.9
76284.2
75852.1
74996.5
74837.1
73859.5
81209.6
113397
115350
86744.9
70687.8
65442.9
65176
65003.7
65173.7
65329.5
81350
81688.7
82312.6
85224.8
89202.8
95342.9
119723
113892
105201
87260.4
78592.6
74920.2
72348.2
71373.2
70969.8
81268.6
81578.7
82204.7
85085.1
89255.4
96083.7
125558
127939
103634
86153.9
77883.3
74382.4
72131.8
71210.5
70838.2
81107.3
81330.5
82007.2
83639.9
88298.1
92127.5
116225
145150
109405
84974.3
76436.3
73314
71572.5
70835.2
70550.9
80882.6
81027
81446.1
82690.2
82945.7
90005.7
112637
150878
105683
81655.4
73765.5
72077.8
70920.7
70401.4
70195
80648.8
80719
80932.6
79742.8
80917.1
82388.4
90797.7
151367
89922.1
73901.9
69878
69251.7
70207.5
69930.1
69819.7
80444.7
80391.4
78977.9
78881.4
77862.5
77334.5
80214.6
109299
71309.2
66975.8
65890.4
68099.2
67872.6
69535.2
69533.6
80235.6
80136.5
78605.6
78312
75866.5
74806.1
70910.9
21187.1
44709.2
59467.4
62938.1
65698.9
67456.7
69317.7
69352.3
80084.1
79963.5
78377
76870.9
75161.9
73238.7
65432.3
3167.13
4457.14
52619.2
61211.7
64204.6
67385.4
69316.2
69339.5
79989.2
79852.8
78248.3
76681.5
74810.4
72582.4
64730.6
2554.71
2286.02
51673.1
61571.6
64498.1
67614.9
69461.6
69460.1
79981.8
79867.7
78240.6
77747.4
74878.9
72957.5
67165.5
46734
30729.3
58009.8
63572.4
66386.4
68009.3
69748.1
69697.8
80017.1
80007.1
80033.3
78162.9
76467
74721.7
71658.3
72508.1
62898
65501
66099.7
68859.7
70456.4
70112.2
69972.3
80141.9
80210.3
80450.8
81360
80347
84602.2
91939
131529
86782.1
74865.1
72213.7
72084.9
71011.5
70504.7
70299.2
80309.7
80470.9
81002.9
82360.2
86576.7
89227.7
111012
138624
103694
82511.7
75941.1
73184.5
71587.9
70888.2
70614.9
80442.9
80702.7
81218.3
83835.1
88048.2
93386.3
122797
123955
101048
84470.4
77305.7
74076.1
71989.5
71165.9
70838.5
80514
80806.2
81334.1
83918.6
87791.4
92606
112847
106538
99752.1
85003.4
77893.5
74476
72206.6
71317.1
70957.9
85356.8
86029.2
87003.6
89650.4
93526.3
93102.3
99350.2
100856
96625.8
88973.7
84625
81141.6
78179.7
76865.3
76186.6
85330.2
86001.9
87075.1
89965.3
94142.4
94721.5
100769
105169
97434.1
89982.1
84729.2
80913.3
78078.9
76734.6
76077.8
85246.4
85841.6
87203.2
89659.7
93983.2
96882.6
102868
113156
99449.5
91517.1
84202.2
80366.5
77736
76426.9
75832.5
85089.6
85649.2
86921.5
89621.3
91473.5
99008.6
110706
126504
107896
91723.7
83643.5
79605.7
77250
76047.6
75519.7
84885.9
85385.2
86565.1
87231.9
91081.8
97393
113000
141888
112284
92122.3
82375.6
78115
76622.5
75605.7
75164.9
84671.8
84996.4
84985.6
86597.7
88893.6
95163.1
111296
127766
115868
91087.7
81001.5
77519.7
75285.5
75175.9
74882.2
84466.1
84743
84712.3
86194.6
87702.6
94607.5
110596
132444
129549
90361.8
80267
76675
75041
74984.9
74722.4
84305.5
84557.8
84464.5
84981.5
87295.7
94527.9
114224
155152
112031
89937.6
81534.7
76791.7
75136
75023.5
74739.9
84177.4
84417.1
84273.5
84714.2
86824.6
93415.9
109482
144106
117638
91888.6
83219.4
77514.8
75461.4
75201.7
74867.7
84128.4
84387.8
84163.3
85343.7
86443.7
92220.5
106471
142206
118965
92518.7
82866.3
77942.9
75750.5
75467
75089.1
84138.2
84529.8
85420.7
85612.1
87152
92048.8
105674
137632
115999
91794.1
82279.1
78414.1
77002.8
75836.7
75340
84215.8
84672.7
85703.6
87962.1
89163.5
95818.6
106950
127371
108064
90961.3
82940.8
79656.5
77349.1
76147.7
75611.9
84309.4
84820.6
85995.2
88087.4
92002.3
95245
102285
113243
97942.1
90031.3
83634.7
80111
77669.6
76413.6
75843.3
84359.3
84959.1
85899.8
88394.6
92764
92451.2
99011
101267
95258.4
88511.2
84068.1
80446.2
77853.1
76608.1
76005.5
84370.4
84967.4
85817.1
88042.1
91721.7
90995.8
95817.3
97836
94670
87622.4
83846.4
80498
77923.7
76697.5
76084
88271.6
88855.4
89508.8
90638.2
93102.7
92091.1
93158.2
96968.9
91634.4
88524.8
86512.4
84219
82061
81024.7
80369.7
88312.1
88919.1