/*--------------------------------*- C++ -*----------------------------------*\
| =========                 |                                                 |
| \\      /  F ield         | OpenFOAM: The Open Source CFD Toolbox           |
|  \\    /   O peration     | Version:  v2012                                 |
|   \\  /    A nd           | Website:  www.openfoam.com                      |
|    \\/     M anipulation  |                                                 |
\*---------------------------------------------------------------------------*/
FoamFile
{
    version     2.0;
    format      ascii;
    class       volScalarField;
    location    "0.002";
    object      p;
}
// * * * * * * * * * * * * * * * * * * * * * * * * * * * * * * * * * * * * * //

dimensions      [1 -1 -2 0 0 0 0];


internalField   nonuniform List<scalar> 
449343
(
112470
112579
112744
112873
112819
112344
111265
109522
107189
104511
101813
99394.7
97460
96124.9
95446.3
112455
112564
112729
112857
112802
112325
111246
109503
107171
104495
101798
99379.4
97443.8
96107.8
95428.5
112442
112552
112717
112844
112786
112306
111224
109481
107152
104480
101787
99368.5
97430.9
96092.9
95412.5
112433
112542
112707
112834
112771
112284
111200
109454
107130
104465
101779
99361.4
97421
96080
95397.9
112424
112534
112699
112824
112755
112261
111172
109425
107107
104450
101773
99356.9
97413.1
96068.4
95384.2
112415
112525
112690
112814
112739
112239
111147
109400
107087
104440
101770
99353.6
97405.8
96057
95370.6
112403
112514
112678
112801
112722
112219
111125
109379
107072
104430
101762
99348.3
97396.7
96044.3
95356.1
112387
112498
112662
112785
112705
112200
111101
109352
107046
104413
101749
99334.8
97381.9
96028.2
95339.3
112367
112478
112642
112765
112687
112184
111090
109344
107036
104395
101727
99312.7
97360.9
96008.2
95319.9
112343
112453
112618
112742
112668
112168
111076
109329
107017
104369
101698
99282
97333.9
95984.8
95298.3
112316
112426
112591
112716
112648
112154
111066
109318
107000
104343
101666
99249.1
97304.9
95959.7
95275.4
112287
112397
112562
112689
112627
112141
111056
109311
106987
104322
101635
99216.8
97275.9
95934.5
95252.2
112260
112369
112535
112662
112605
112125
111044
109300
106971
104299
101606
99186.7
97248.5
95910
95229.3
112234
112343
112509
112637
112582
112106
111027
109284
106952
104276
101579
99159.7
97223.5
95886.9
95207.3
112211
112320
112486
112614
112561
112086
111009
109266
106932
104254
101556
99136.5
97201.2
95865.6
95186.6
112344
112508
112782
113065
113228
112982
112021
110185
107560
104508
101488
98859.9
96811.3
95421.8
94722
112329
112493
112768
113051
113212
112963
112001
110165
107542
104493
101475
98845.5
96795.1
95404.2
94703.7
112318
112482
112758
113041
113200
112946
111980
110144
107524
104483
101469
98836.7
96782.3
95388.5
94686.7
112309
112475
112751
113034
113188
112922
111948
110107
107499
104472
101468
98833.5
96772.7
95374.5
94670.8
112302
112469
112747
113029
113178
112892
111912
110069
107452
104461
101475
98835.1
96765.7
95361.9
94655.6
112294
112462
112741
113024
113164
112870
111885
110042
107437
104455
101482
98838.9
96760.2
95349.6
94640.5
112283
112453
112733
113015
113148
112854
111865
110022
107423
104456
101497
98844
96753.3
95336.8
94625.1
112268
112438
112718
113001
113132
112834
111838
109938
107391
104436
101485
98832.2
96738.5
95320.8
94608.1
112247
112417
112697
112980
113112
112819
111830
109986
107388
104421
101462
98808.5
96717.5
95300.7
94588.9
112222
112391
112670
112953
113093
112800
111814
109972
107367
104385
101411
98767.5
96688.5
95277.5
94568.2
112194
112361
112639
112921
113071
112786
111806
109963
107346
104355
101368
98727.7
96657.7
95253.4
94546.8
112164
112330
112607
112890
113045
112778
111806
109965
107356
104329
101325
98689.3
96627.9
95229.2
94525.1
112135
112300
112576
112859
113019
112765
111800
109964
107345
104303
101288
98655.3
96600.1
95205.7
94503.6
112109
112273
112548
112831
112993
112745
111783
109948
107324
104276
101257
98626.2
96575
95183.4
94482.6
112086
112249
112524
112807
112970
112725
111765
109930
107304
104252
101232
98602.2
96552.8
95162.5
94462.4
112013
112300
112829
113492
114191
114542
113941
111868
108470
104445
100638
97535.2
95239.6
93733.9
92990.1
111998
112286
112817
113481
114180
114525
113922
111850
108454
104435
100629
97522.2
95223
93715.2
92970.6
111988
112278
112811
113478
114177
114514
113898
111833
108441
104438
100634
97517.4
95209.5
93697.5
92951.3
111982
112274
112812
113482
114179
114479
113852
111796
108379
104436
100657
97522.9
95199.8
93680.8
92932.1
111978
112273
112816
113491
114182
114441
113731
111683
108282
104473
100694
97535.9
95193.9
93664.9
92912.9
111972
112272
112821
113501
114184
114394
113698
111653
108269
104491
100738
97555.8
95189.6
93649.8
92894
111963
112266
112817
113499
114163
114384
113673
111626
108250
104499
100857
97584.5
95188
93634.8
92875.5
111949
112254
112805
113489
114156
114379
113689
111725
108223
104480
100845
97574.6
95174.8
93619.8
92858.5
111928
112231
112781
113464
114127
114349
113638
111592
108216
104464
100823
97549.3
95152.1
93598.5
92839.5
111901
112201
112750
113430
114114
114325
113628
111583
108200
104421
100668
97485.2
95118.4
93578.1
92822
111870
112166
112709
113384
114076
114335
113626
111578
108178
104368
100588
97429.5
95086.6
93556.9
92804.5
111838
112130
112668
113339
114036
114336
113710
111655
108239
104295
100515
97379.9
95055.7
93535.9
92786.8
111807
112096
112630
113297
113998
114334
113719
111655
108264
104261
100456
97337.2
95028.1
93515.2
92768.6
111779
112067
112597
113262
113962
114308
113706
111634
108239
104219
100412
97304.1
95003.6
93494.9
92749.9
111755
112042
112572
113235
113935
114286
113687
111615
108217
104191
100383
97278.7
94981.8
93475.1
92730.8
111333
111804
112732
114054
115633
117198
117702
115138
110069
104014
98890.1
95143
92561.3
90940.7
90162.3
111319
111791
112722
114047
115629
117188
117678
115123
110053
104012
98885.8
95129.6
92542.4
90919.8
90140.7
111310
111786
112722
114057
115647
117198
117661
115136
110081
104058
98909.6
95125.2
92524.4
90897.4
90117.1
111306
111786
112733
114084
115678
117178
117468
115126
109908
104142
98975.7
95132.5
92507.5
90873.3
90091.1
111303
111791
112754
114117
115733
117159
116622
114926
110937
104373
99087.1
95163.8
92493.9
90847.7
90063.3
111301
111797
112778
114182
115804
116285
116551
114887
110978
105789
99206.2
95202.2
92484.2
90821.2
90035.8
111293
111796
112793
114173
115089
116287
116516
114825
110919
105796
100697
95238.1
92467.1
90796.9
90009.2
111279
111787
112792
114173
115082
116293
116532
114720
110903
105793
100665
95226.8
92466.5
90787.4
89991
111258
111761
112758
114137
115058
116263
116490
114784
110886
105770
100652
95203.2
92430.8
90760.7
89973.7
111229
111726
112707
114113
115735
116229
116470
114783
110871
105739
99138.7
95133.4
92414.5
90750.4
89964.2
111196
111684
112647
114011
115627
117054
116513
114816
110870
104272
98984.2
95059.2
92387.8
90740.5
89955.7
111162
111642
112590
113941
115536
117037
117330
114989
109771
104005
98836.8
94991.5
92364.6
90729.3
89946.6
111129
111605
112542
113877
115468
117020
117484
114961
109907
103884
98733.8
94947.1
92344.4
90716.1
89935
111100
111573
112503
113830
115412
116972
117464
114912
109842
103801
98672.3
94913.7
92324.4
90700.4
89920.7
111076
111547
112475
113798
115378
116944
117450
114888
109821
103765
98638.3
94888.7
92304.8
90682.8
89903.8
110070
110749
112151
114342
117316
121020
124578
120972
112406
102347
95483.4
91254.2
88566.3
86968.1
86230.3
110055
110736
112142
114339
117319
121023
124560
120967
112413
102363
95481
91234.6
88541.6
86943.1
86205.6
110045
110730
112146
114360
117372
121093
124570
120996
112502
102445
95511.5
91216.7
88511.2
86912.2
86175.1
110038
110730
112165
114424
117532
121188
122203
121142
114379
102869
95658.4
91210.3
88470.8
86873.2
86138.4
110034
110736
112207
114519
117621
119629
122122
121071
114428
105447
95817.5
91204.5
88426.9
86824.7
86094.2
110029
110749
112263
114689
116680
119774
122099
120910
114318
105738
98289.3
91275.7
88363.7
86781
86052.8
110019
110743
112293
114100
116778
119870
121132
120263
114841
106874
98462.3
93308.2
88243.1
86713.9
86004
110008
110741
112351
114117
116812
119894
121134
120234
114844
106894
98503.3
93349.2
88360
86697.7
85990.4
109984
110708
112258
114078
116774
119867
121100
120227
114804
106876
98475.6
93322.9
88207.2
86679.3
85970
109958
110678
112193
114620
116632
119730
121193
120220
114785
105749
98315.1
91209.6
88296.5
86711.3
85981.4
109927
110630
112101
114414
117516
119571
121975
120828
114191
105472
95718.7
91102.7
88322.6
86718.6
85988.3
109895
110587
112022
114282
117392
121049
122051
121010
114347
102739
95524.4
91072.5
88329.9
86730.6
85994.6
109864
110549
111966
114181
117194
120917
124397
120884
112335
102278
95340.3
91041.8
88333.5
86732.5
85994.3
109837
110518
111924
114122
117104
120809
124347
120777
112210
102159
95272.5
91021.8
88325.6
86725
85986.7
109813
110492
111895
114087
117062
120768
124328
120733
112164
102105
95236.6
91003
88311.9
86711.7
85973.1
107923
108770
110583
113654
118429
125472
131372
135410
119602
96848.4
89134.2
85284.3
82986.4
81739.3
81201.6
107906
108754
110571
113650
118441
125492
131370
135406
119603
96852.9
89113.9
85246.4
82951.6
81709.4
81173.6
107890
108742
110570
113664
118487
125599
131383
135434
119598
96841.3
89066.9
85173.4
82896.7
81666.6
81135.7
107875
108733
110585
113743
118890
123370
131459
135536
119674
101787
89112.5
85005.1
82807.2
81607.9
81085.6
107860
108723
110611
113922
117631
123743
131617
133204
121385
102461
92636.4
84830.3
82630.9
81513.1
81021.6
107840
108703
110686
113334
117724
122684
129718
132083
121277
104958
92743.4
87434.8
82446.4
81403.6
80952.8
107822
108676
110669
113398
117833
122751
128726
132055
121864
105974
94616.3
87439
82289.4
81295.8
80883
107793
108636
110580
113448
117135
122163
128747
132008
121793
106000
94576.8
87423.5
84425.5
81230.2
80859.8
107787
108642
110635
113399
117102
122733
128730
131993
121782
105992
94558.1
87369.9
82259
81263.1
80849.2
107770
108633
110617
113265
117752
122703
128655
132017
121835
105936
94617.3
87411.9
82378.4
81335.2
80883.8
107753
108617
110505
113818
117553
123695
129514
132978
121182
104747
92653.2
84733.3
82529.8
81409.4
80916.7
107732
108591
110443
113602
118750
123324
131350
135413
119585
101846
88985
84871.4
82668.4
81467.1
80943.8
107710
108562
110391
113486
118310
125424
131234
135281
119481
96685.9
88902.5
85003.1
82722.6
81489.1
80956.7
107688
108537
110354
113434
118226
125280
131153
135214
119425
96661.4
88912.1
85038
82738.2
81493.4
80956.5
107667
108514
110328
113399
118175
125222
131131
135176
119388
96619.2
88893.9
85037.1
82734.6
81485
80946.1
104610
105483
107406
110833
116688
124384
141965
171083
121232
87940
77718.3
76457.5
75635
75318.6
75213.1
104589
105461
107383
110809
116670
124384
141950
171062
121213
87918.7
77648.3
76385.9
75590.7
75286.3
75184.8
104565
105433
107352
110765
116582
124344
141891
171027
121172
87875.3
77507.4
76270.9
75519.2
75236.5
75145.4
104530
105388
107293
110594
115636
124598
142004
170889
120905
87900.4
81066.5
75817.8
75372.5
75155.5
75088.7
104489
105332
107169
110549
115750
123541
138706
170836
121877
91955.5
80642.4
78178.8
75044.4
75030.1
75011.5
104419
105180
107543
110611
115353
123592
137146
165818
127156
94008.8
82957.7
77959
76865.5
74874.4
74930.8
104396
105159
107540
110608
115390
122971
137049
165727
127026
93931.9
84263.1
79543.9
76766.4
74818.1
74876.2
104337
105095
107574
110615
115368
122921
137004
165687
126991
93893.1
84204.2
79486.1
76744.6
74811.5
74832.6
104361
105124
107513
110609
115359
122907
136987
165671
126978
93882.1
84199.5
79475.2
76695.4
74786.1
74841.3
104349
105110
107498
110542
115354
122922
137002
165680
126996
93896
84223.3
79520.7
76759.2
74807.9
74863
104383
105226
107063
110439
115671
123497
137079
165748
127110
93951.3
83021.8
77972.7
74946.7
74928.6
74908.3
104387
105245
107152
110453
115410
124457
138406
170683
120956
92233.4
80789.2
75689.1
75238.5
75017.7
74948.9
104385
105254
107174
110587
116404
124160
141784
170798
120979
87776.7
77350.9
76104.7
75347.4
75061.1
74968.3
104372
105244
107167
110593
116454
124178
141728
170848
121046
87756.7
77453.4
76182.4
75380.6
75072.6
74969.6
104354
105228
107151
110579
116433
124142
141713
170837
121041
87728.7
77483.9
76214.1
75386
75066.3
74959.5
99998.2
100632
102026
104457
108361
116287
125952
129485
20519.2
55134.8
61631.5
65019.4
66973.5
68169.8
68703.3
99975.6
100605
101992
104415
108323
116248
125918
129385
20440.1
55099.4
61518.9
64954.9
66942.8
68146.1
68682.4
99949.4
100570
101945
104375
108243
116156
125848
129341
20454
55065.1
61406.8
64923.5
66915.4
68121.2
68662
99893.8
100480
101814
104096
109307
115773
125613
129408
20529.9
55210.2
62864.7
64930.1
66880.5
68082.7
68635.5
99833.8
100380
101597
105130
109085
115991
126215
129091
20329.1
58704.9
64447.1
66365.5
66903.2
68063.6
68605.1
99709.3
100210
102719
105012
109397
116081
126052
128845
20070.1
59053.4
65422.7
66473.1
68137.4
68107.1
68584.1
99692.1
100185
102730
104925
109556
116004
125970
128839
19961.8
59091.9
65543.5
67443.2
68092.4
68125.8
68580.1
99644.4
100113
102684
105455
109537
115960
125927
128780
19900.2
59081.8
65565.3
67920.1
68137.7
68159.5
68564.3
99655.4
100149
102668
105433
109524
115945
125910
128774
19896.3
59072.6
65553.2
67904.7
68079.4
68094.4
68546.3
99641.3
100142
102680
104882
109510
115960
125921
128775
19976.4
59061.9
65501.5
67394.7
68035.2
68040.9
68516.7
99727.9
100274
101492
104989
109332
116007
125974
128763
20072.4
58990.8
65316.6
66264.7
66807.1
67963.9
68503.3
99750.8
100338
101673
103956
109079
115362
125236
129031
20320.8
57076.4
62611.5
64809.1
66751.1
67947.2
68497.4
99769.5
100391
101767
104198
108067
115796
125541
129204
20357.4
54956.6
61259.5
64764.2
66747.3
67947.9
68486.6
99757.8
100388
101776
104200
108109
116007
125663
129120
20413.1
54948.6
61331.6
64754.6
66735.1
67934.3
68468.9
99742
100376
101771
104204
108109
116030
125680
129117
20434.1
54936
61398.3
64777.6
66726.3
67919
68451.1
94283.3
94403.8
94644.9
94983.7
95651.2
100870
106363
122242
2321.02
32885.8
47047.7
54215
58737.2
61354.8
62508.5
94267.9
94384
94621.3
94958.1
95643.5
100835
106327
122050
2321.14
32883.2
46980.5
54206
58737
61349.9
62503.2
94263.1
94376.6
94607.4
94977.2
95658
100755
106256
121970
2320.21
32841.9
46994.2
54273.4
58781.4
61378
62522.2
94232
94317.4
94534.2
95011
98462
100647
106057
121974
2312.08
33033.5
47215.8
54543.4
58894.9
61437
62561.5
94200.4
94251.7
94500.8
97028.8
98490.7
102537
107061
121969
2305.64
33053.3
47935.7
55462.7
59112.1
61570.8
62627.4
94123.5
94229.1
96160.9
96959.5
99761.3
103342
106887
121485
2361.68
33601.5
48344
55510.9
59916.2
61715.1
62714.2
94120
94220.1
96126.7
96897.4
100372
103233
106808
121494
2375.54
33738.4
48439.6
55940.3
59936.3
61756.1
62741.6
94090.3
94173.7
96071.1
97946.4
100302
103182
106774
121439
2367.78
33710.7
48460.6
56172
59933.9
61791.1
62743.4
94085.1
94185.6
96053.3
97919.2
100289
103167
106758
121445
2371.54
33712.3
48451.1
56157.2
59904.3
61722.9
62707.6
94053.9
94160
96066
96873.9
100317
103191
106762
121440
2382.57
33723.5
48405
55900.8
59875
61649.4
62647.2
94094.2
94146.1
94396.6
96888.5
99725.7
103285
106817
121432
2368.89
33533.5
48267.3
55340.7
59018.2
61471.7
62526.1
94089.1
94175
94393.2
94872.8
98394.3
100654
105972
121901
2304.09
33072.5
47389.8
54425.1
58766.7
61302.1
62423.7
94082.4
94196.6
94428.8
94801.4
95487
100557
106003
121789
2318.92
32728.5
46850.8
54117.9
58614.9
61205.4
62347.2
94049
94166
94405.1
94744.7
95435.2
100603
106084
121783
2326.09
32703.4
46786.4
54004.3
58529.9
61138.7
62290.1
94026
94147.4
94390.4
94732.2
95404.9
100623
106105
121814
2325.01
32632.4
46796.3
53969.9
58489.6
61104.2
62256.4
88111.9
87640.8
86651.7
85030.5
85095.6
84782.3
88373
2434.16
26179.8
39337.2
47475.5
52923.1
56188.4
57676.7
88116.5
87646.1
86658.4
85039.2
85110.8
84773.1
88351.6
2451.33
26161.3
39335.4
47512.3
52945.5
56200.2
57685.7
88153.7
87689.8
86702
85084.4
85182.9
84796.3
88306.6
2446.87
25835.6
39452.1
47585.7
53016
56260.5
57732.4
88196.7
87736.8
86738
85269.8
85700.7
84783.7
88121.6
2413.01
25840.3
38499.8
47892.9
53175.7
56368.2
57813.4
88269
87807.3
86959.9
87542.1
86317.7
87099.5
88849.6
2300.52
22938.2
37997.8
47734.3
53394.8
56549.5
57923.5
88306.5
87974.8
88670.1
87789.5
87834.1
88137.4
88723.2
2304.55
22739.2
37746.9
47822
53522.9
56644.9
58053
88352.1
88040.6
88623.5
87885.3
88691
88172.4
88713.4
2302.78
22793.1
37814.8
47654.8
53609.1
56668.9
58077.6
88339.4
88026.6
88602.1
88849.8
88761.3
88184.4
88716
2302.51
22791.6
37833
47591
53601.1
56696.2
58083.4
88317.4
88006.6
88569.1
88841.1
88745.3
88165.8
88698.6
2302.25
22792.8
37824.4
47575.4
53573.8
56632.6
58040.5
88236.1
87905.3
88556.4
87824.8
88638.8
88120.3
88664
2302.66
22790.1
37785.1
47607.8
53539.6
56581
57989.1
88162.1
87701.1
86854.8
87451.1
87726.9
88059.3
88649.7
2303.16
22737.3
37711.5
47672.4
53300.4
56449.9
57819.7
88052.6
87593.2
86596.2
85131.8
85758.2
84808.3
87717.8
2299.3
23953.5
38536.6
47771
53045.1
56230.3
57674
87971.1
87508.1
86522.2
84908.6
85172.3
84652.9
88068.8
2400.48
25558.4
39312.4
47430.6
52847.8
56086.8
57556.2
87895.3
87425.9
86440.5
84825.6
84953.4
84601.3
88151.2
2437.28
25994.9
39141.9
47307.7
52736.7
55987.1
57470.8
87851.9
87381.9
86395.1
84778.3
84868.6
84557.3
88149.5
2426.17
26030.4
39085.9
47227.8
52673.5
55936.3
57423.4
82384.3
81382.8
79256.2
75472
73604.8
66452
62252.2
2278.8
2279.53
23614.6
36965.1
44899.8
50230
53451.3
54947.5
82413.8
81418.2
79299.7
75525.1
73644.3
66467.2
62255
2278.68
2279.6
23716.4
36967
44949.1
50256.8
53467.1
54959.2
82497.5
81516.7
79405.3
75604.6
73743.5
66520.9
62293.9
2278.44
2279.39
19753
37139.1
45051.3
50333.7
53528.2
55006.5
82617.5
81665.8
79522.7
75819.3
73910
66561
62363.8
2279.07
2284.92
20584.3
34713.4
45254.9
50471.4
53626
55085.1
82791.4
81861.2
79790.2
78858.1
74028.6
69639.8
64210.7
2269.66
2289.81
18055
33361
43925.6
50633
53780.4
55177.3
82936.3
82108.7
81781.3
79018.7
76111.6
71108.3
64205
2270.69
2290.65
17881
32712.3
43979.2
49967.7
53850.5
55285.7
83026.2
82213.5
81853.7
79064.2
77057.2
71259.4
64328.8
2269.54
2290.64
17856.5
32743.9
43258.9
50045.8
53863.3
55298.8
83032
82231
81868.9
80342.1
77134.9
71347.1
64390.1
2272.26
2290.51
17863.2
32757.7
42911.1
50062.8
53880.9
55305.8
82991.1
82179.4
81833.6
80337
77115.3
71325.3
64373.4
2272.28
2290.51
17856
32744.9
42895.7
50038.9
53825.6
55260.9
82865.4
82039.4
81759.3
78988.6
77017.6
71197.7
64276.4
2269.4
2290.67
17841.5
32705.2
43218.2
49991.5
53784.7
55218
82682.9
81753.6
79684.5
78830.1
76002.8
71013.3
64127.7
2270.45
2290.57
17876
32673.2
43865.1
50533.1
53676.8
55070.9
82470.6
81519.7
79378.9
75682.7
73803.4
66488.3
62155.6
2268.99
2290.49
19119.4
34610.8
45130.7
50338.3
53486.3
54943
82311.4
81331.4
79222.3
75428.5
73605.6
66404.5
62234
2278.55
2279.6
19864.2
36999.1
44888.7
50161.2
53351.2
54827
82188.4
81193.4
79077.1
75309.7
73480.6
66319
62139.6
2278.45
2279.99
23554.5
36780.6
44746
50044.9
53250.7
54741
82119.5
81118.7
78994.3
75217.7
73374.6
66253.9
62083.2
2278.67
2279.87
23386
36734
44655.6
49978.5
53196
54690.7
77920.1
76536.9
73561.6
68192.7
58842.8
49231.7
23601.8
2262.38
2299.7
27285.9
38815.9
45602
50368.4
53133.6
54434.2
77970.9
76599.7
73644.3
68312.5
59008.2
49291
23611.9
2263.26
2299.62
27325.4
38741.9
45649.8
50382
53142.8
54439
78091.2
76745.7
73826.4
68519.7
59345.9
49175.9
23697
2263.3
2299.25
22733.7
38827.5
45794.6
50441.8
53189.7
54469.8
78261.3
76974.9
74054
69011.8
63872.8
49511.8
24430.7
2263.63
2271.44
21729.7
35196.6
45987.5
50518
53258.2
54524.1
78490.2
77262.6
74478.8
71986.3
64477.3
53968.1
30767.4
2292.62
2279.68
17923.9
33461.7
43864
50661.1
53381
54580.8
78702.5
77512.9
76472.1
72369.6
66967
56401.6
31661.8
2333.92
2281.88
17922.5
32598.3
43923.2
49376.3
53440.5
54672.3
78811.3
77634.3
76699
72555
68160.8
56916.4
32040
2346.21
2282.23
17934.2
32649.6
42806.5
49433.7
53450.4
54671.4
78830
77667.2
76774.9
73890.9
68298.6
57137.8
32165.7
2299.98
2281.64
17944.3
32671.5
42252.3
49450.1
53466.1
54669.9
78775.9
77600.2
76726.9
73870.5
68274
57112.9
32150.9
2304.07
2281.7
17933.9
32653.5
42235.4
49437.3
53413.8
54633.9
78630.5
77442.4
76577.8
72417.6
68094.6
56832.9
31982.8
2352.87
2282.28
17903.5
32594.9
42765.5
49394.7
53369.2
54599.8
78379.1
77152.4
74369.7
72200.7
66790.4
56254.6
31553.6
2317.52
2281.41
17878
32531.4
43811.4
50553.4
53271.7
54469.2
78110.4
76824.1
73904.2
68864.5
64018.7
49921.2
26064.8
2282.27
2280.53
19353.6
35179.1
45856.3
50378.6
53113.7
54376.5
77899.6
76553.7
73633.6
68327.2
59154.7
49219.1
24069.4
2259.88
2299.35
22523.7
38674
45620.4
50263.3
53007.1
54284.5
77738.6
76366.5
73409.2
68076.4
58774.7
49101.5
23556.8
2263.42
2299.41
27193.9
38552.6
45440.2
50164.9
52921
54215.2
77647.8
76263.3
73285.7
67916.4
58570.5
49032.4
23498.4
2262.68
2299.53
27132.5
38597
45356.4
50113.4
52873.1
54171.8
75308.9
73894.5
70865.3
65582.8
56872
46622.2
16502.7
2296.87
2709.21
34648.7
43558.5
49150.5
52797.2
54827.3
55800.2
75373
73978.3
70986.8
65783.8
57215.1
47010.6
16737.5
2296.87
2823.83
34395.1
43469.7
49174.2
52783.8
54822.1
55793.7
75515.4
74155.7
71242.7
66053.8
58218.8
46140.3
17386.3
2300.91
2302.47
28323.7
44255
49399.1
52842.8
54851.6
55806
75716.8
74449.4
71612.2
66922
60835.4
46979.1
19220.2
3888.76
2290.61
28396.5
40281.6
49644.9
52887.5
54893.1
55835.1
75976.6
74802.1
72212.7
69033
62074
51266.4
32392.4
3440.65
2114.69
24231.7
38736.4
47318.8
53024.5
54970.2
55869.8
76220.1
75101.5
73600.3
69705.8
64025.4
54202.9
38153.9
5624.71
2123.41
24857.7
37915.2
47443.3
51451.6
55024
55925.8
76339.3
75245.1
73880.4
70053.5
65063.1
55417.6
39973.7
6522.24
2100.17
24963.6
38041.6
46153.8
51500.2
55019.6
55915.1
76367.9
75287
74004.6
70920.6
65346
55836.5
39811.1
4811.2
2099.19
25005.9
38086.1
45496.9
51509.4
55018.8
55916.8
76303.3
75210
73958.4
70891.3
65319.5
55814.1
39873.5
5085.47
2098.72
24985.9
38062.5
45478
51495.9
54981.9
55878.1
76146.6
75029.3
73747.1
69877.3
64978.8
55302.3
39777.2
6537.79
2101.54
24910.7
37968.2
46106.6
51455.4
54947.3
55849.4
75862.6
74688.4
72098.1
69407.9
63744.4
53909.4
37730.6
5989.42
2135.15
24740.1
37802.8
47316.6
52908.4
54854.4
55754.7
75561.1
74292.6
71452.7
66758.4
61255.4
48423.9
29359.5
2581.81
2140.89
25880.8
40527.7
49493.4
52735.7
54740.9
55682.2
75317.1
73954.8
71035.5
65836
57990.2
46298.8
18432.9
2502.68
2303.63
28625.8
44067.9
49209.7
52653
54660.8
55614.5
75132.4
73733.4
70732.4
65512.5
56918.8
46701
16538.4
2297.98
2768
34234.1
43252.9
48948.7
52555.1
54592.4
55563.5
75027.1
73607.7
70567.4
65265.6
56524.2
46253.6
16293.4
2297.06
2656.01
34460.3
43303.7
48888.1
52530.6
54559
55531.4
74695.7
73676
71566.4
68278.1
62915.2
54205.8
59104.1
49013.3
72518
57271.2
54223.6
55574.5
57044.2
57969.1
58487.4
74762.2
73765.1
71708.5
68550.5
63436.2
55553
61721.7
50715.3
71102.5
56720.2
53937.6
55489.8
56975.4
57941.3
58463.7
74904.1
73936.1
71985.9
68801.1
64834.6
55940.3
51736.9
51395.6
55851.4
49053.9
53712.9
55515.8
56970.4
57936
58449.8
75105.4
74214.2
72327
69411.7
64847.1
57233.5
48037.8
34110.5
44457.9
47498.7
50467.9
55469.8
56949.9
57943.7
58443.1
75356.4
74543.6
72822.9
70080.9
65751.8
58221.5
42254.1
17050.5
38933.1
43683.4
49134.7
53489.8
57016
57980.5
58446.6
75589.8
74821.8
73345.1
70669.4
66532.7
60084.1
48293.1
20018.9
37515.5
44445.2
48367.3
53545.5
55433
57997.2
58474.9
75703.6
74955.9
73601.8
71032
67156
61403
50249
18888.5
37856.6
44722.5
48526.3
52323.7
55442.8
57977.3
58449.5
75737
75000
73719.6
71330.4
67487.2
61941.3
51001.1
19669.1
38545.2
44853.8
48586.5
51662.3
55447.9
57967.7
58444.2
75667.5
74921
73682
71300.2
67465.7
61917.4
50910.8
19480.1
38475.9
44822.5
48559.3
51640.8
55427.4
57937.5
58410.9
75515.7
74749.5
73471.9
70867.5
67079.4
61293.5
50153.2
18920.1
37685
44631.4
48439.6
52263.5
55395.4
57916.6
58395
75241
74428.5
72707.5
70363.2
66270.4
59796.3
47373.5
19802.8
37399.4
44259.8
48212.9
53421.3
56892.7
57859.5
58327.2
74946.7
74053.2
72160.6
69235.1
65046.5
57799
41553.1
17553.7
38099.2
44967.6
50654.2
55301.6
56787.8
57784.3
58284.4
74700.8
73728.1
71766
68556.6
64542.2
56639.5
51663.6
49778.2
54235.2
47689.8
53479.5
55304.1
56767.4
57736.6
58251.5
74514.9
73510.3
71435.5
68238.7
63027.6
54981.8
60162.9
49678.5
70552.2
56382.5
53654.8
55236.2
56732
57702
58226.1
74406.3
73377.6
71246.5
67913.6
62435.5
53541.7
57317.4
47681
71854.1
56866.6
53888.7
55279.9
56760.8
57690.8
58211
75572.3
75153.6
74413.8
73483.2
74931.4
70687.4
92189
84533.1
85745.6
67879.3
64975.2
62690.8
62056.2
61821
61861.3
75626.8
75223.4
74505
73723.2
74962.8
71476.8
91283.1
84103.5
83789.5
67624
64584
62498.2
61923.4
61765
61814.4
75739.5
75335
74674.4
73932.2
73987.5
71806.3
78859.6
85601.9
75157.5
66182.7
63077.2
62141.9
61708.9
61687.6
61757.1
75891.9
75516.8
74835.5
73954.4
72154.1
71976.3
76988.9
85623.7
74346
64802.7
61212.4
61556.5
61552.2
61606
61694.7
76080.8
75739.4
75033.2
73482.5
72177.7
70085.3
69494.8
78155.3
75562.7
63030.2
60004.2
60092.8
61406.3
61571.5
61641.8
76266
75919.1
74866.2
73725.4
71788.6
69614.5
68290.2
81058.2
77729.9
63050.9
59434.8
59936.8
60079.8
61485
61626.8
76356.3
76013.4
74976.3
73972.5
71850.3
70175.6
69264.1
83431.7
78161.3
63191.6
59408.6
59093.5
60039.3
61439.4
61581.5
76386.3
76049.2
75069.1
73772.4
72068
70518.6
69808.3
84050.9
77989.9
63214.8
59402
58681
60009.6
61420.4
61568.2
76320.9
75980.2
75039.3
73752.3
72058.2
70507.8
69789.3
83928.2
78025.7
63196.8
59378.4
58657.7
59993.3
61398.8
61541.5
76193.1
75848.6
74880.7
73862.4
71814.1
70138.7
69129.4
83122
78113.5
63120.4
59332.7
59050.1
60004.2
61403.2
61545.1
75966.8
75626.7
74923.8
73494.7
71620.5
69539.1
68220
80532.7
77542.1
62907.5
59331.4
59842.6
61280.4
61448.4
61520
75734
75357.4
74672.3
73785.9
71805.1
71443
71322.4
75887.1
74890.5
63378.6
60849.2
61382.2
61385.9
61442.6
61532.6
75536.2
75127
74455.6
73694.7
73723
71805.4
77556.7
84605.4
73532.5
65419.5
62839.6
61924.6
61499.4
61483.1
61554.7
75378.5
74967.4
74229.7
73416.6
74568
71083.1
90754.9
83634.1
83443.2
67297.3
64288.7
62235.1
61672.7
61520.2
61572.3
75281.1
74853.1
74090.2
73127.7
74494.8
70231.9
91533
83977.5
85347.9
67493
64631.5
62385.8
61764
61536.6
61580
76962.5
76901.9
77039.7
76600.8
80002.7
76413.5
82835
79482.2
75113.1
69193.6
69438.5
66873.4
66052.7
65369.9
65180
77003.2
76962.2
77070.9
76823.2
79802.2
76869.6
83112
79912.2
75187.9
69487.3
69269.2
66777.6
65948.5
65314.2
65122
77084
77042.3
77087.3
77228.3
78543.4
77597.5
80949.2
84757.3
76422.7
70502.2
68352.4
66646.1
65658.6
65209.4
65030.3
77192.2
77155.3
77177.6
77332.9
77329.6
78393.9
82035.4
86714.4
79059.2
70975.6
67514.2
66221.6
65490
65060.2
64927.1
77321.7
77310.3
77292.4
76726.5
77181.1
77974.8
80878.2
86784.6
79219.7
71282
67030.6
65346.9
65219.2
64950.1
64813.6
77455.6
77420.7
76859.9
76831.3
76784.2
77489.6
80459.5
84192.4
78806.2
71177.2
66768.6
65159.6
64346.7
64795.2
64738.6
77523
77497.5
76919.5
76982
76625.4
77494.8
80276.8
82875.6
78317.3
71059.6
66667.7
64740.9
64261.4
64722.4
64670
77546.9
77525.8
76965.3
76758.4
76643
77572.4
80315.8
81819.9
77934
70954.7
66607.5
64531.8
64189.3
64686.7
64647.3
77488.7
77465.7
76941.2
76733.1
76647.9
77580
80327.4
81946.4
77968.4
70949.9
66589.5
64511.8
64187.5
64682.1
64629.7
77385
77353.9
76854
76903.3
76626.7
77532.6
80334.2
83090.6
78383.3
71030
66608.9
64685.2
64238.1
64713.6
64657.2
77211.1
77202.9
77191.3
76689.6
76698.8
77558.7
80584.6
84540.8
78856.9
71102.4
66678.5
65106.1
65093.6
64827.7
64691.9
77038.7
77003.1
77026.5
77188.2
76974.1
78515.3
81361.1
86913.7
79133.2
71045.3
67162
66051.4
65327.4
64897.2
64765.1
76886.2
76842.9
76884.3
77019.7
78336
77783.9
81820.7
84703.9
77654.4
70709.7
68137.3
66438.3
65451.3
65005.6
64827.9
76761
76716.6
76814.6
76552.7
79530.7
76603
82889.7
79690.9
74964.9
69223.7
69012.8
66527.8
65703
65070.8
64880.2
76677.1
76612.8
76734.8
76278.1
79692.5
76104.6
82596.3
79227.3
74853.2
68882.6
69139.4
66583.1
65765.3
65087.1
64899
78097.7
78053.5
78372.3
77362.2
79939.3
77711
77802
75992.6
72555
70837.3
70855.8
69116.7
68763.5
68146
67972.7
78139.4
78134.1
78414.8
77719.7
79964.3
78177.9
78910.6
76728.9
73313
71304.7
70954.5
69160.7
68736.1
68117.8
67927
78219.7
78260.8
78437.1
78472.9
79315.7
79316.3
80006.3
79699.4
75882
72737.4
70844.6
69359.3
68554.6
68068.2
67843.3
78335.9
78406.6
78617.5
79012.8
79237.4
80284.8
81623.7
81119
77402.5
73304.1
70790.6
69372.6
68499.7
67952.3
67754.7
78460.4
78572.5
78859.8
78820.1
79736.2
80710.8
82047.2
81310.5
78072.1
73928.2
70773.2
68955.9
68314.5
67833.9
67629.1
78570.2
78688.9
78572.5
78999.1
79591.5
80655
81790.6
80447.9
77754.8
73899.6
70721.9
68893.6
67797.1
67680.1
67531.2
78631.7
78765.5
78666.2
79231.3
79589.7
80576.8
81617.9
80045.9
77471.7
73785.6
70657.3
68670.9
67716
67608.2
67455.6
78652.2
78794.5
78705.3
78983.9
79563.1
80576.4
81672.8
80081.9
77336.2
73696.1
70602.1
68537.6
67667.8
67565.2
67427.8
78597.8
78733
78674.7
78962.4
79571
80587.7
81663.1
80063.8
77340.4
73689
70586
68518.4
67655
67568.9
67416.3
78501.4
78623.9
78578.3
79149.6
79601.1
80616.4
81639.4
80098.1
77488.6
73759
70603.6
68614.9
67681.7
67600.3
67451.3
78353.3
78469
78761.9
78816.3
79491.5
80737.3
81867.9
80556.9
77771
73835.8
70625.2
68829.5
68193.8
67714
67509.3
78188.1
78261.6
78476
78880.2
79264.3
80734.5
81739.1
81374.2
77972.8
73615.1
70636
69213.5
68338.4
67791.7
67594.9
78029.7
78071.3
78248.6
78279.3
79143.7
79694.1
81486.2
79991.1
76525.4
72970.6
70643.4
69158.1
68350.5
67867.8
67643.4
77906.5
77899.1
78177.4
77443.1
79779.9
77910.1
78677.2
76494.9
73084.2
71059.5
70715.9
68919.9
68498.3
67878.8
67688.4
77822.3
77774.1
78086.9
77002.3
79756.8
77406
77530.5
75694.6
72246.6
70539.4
70574.7
68835.6
68484.2
67867.9
67695
78915.2
78883.9
79121.6
78807.6
79696.9
79790.2
79549.1
78090.5
75733.4
73905
72723.3
71350
70978.8
70429.8
70286.7
78960.8
78960.4
79194.1
78987.6
79866.8
79896.7
79916.1
78091.5
75942.9
73997.6
72780.6
71388
70971.2
70414.3
70256.7
79051.4
79106.8
79299.7
79462.9
80041.9
80399.3
81616.3
78972.9
76748.2
74592.4
72784.4
71563.2
70879.6
70406.6
70197.5
79190.4
79291