/*--------------------------------*- C++ -*----------------------------------*\
| =========                 |                                                 |
| \\      /  F ield         | OpenFOAM: The Open Source CFD Toolbox           |
|  \\    /   O peration     | Version:  v2012                                 |
|   \\  /    A nd           | Website:  www.openfoam.com                      |
|    \\/     M anipulation  |                                                 |
\*---------------------------------------------------------------------------*/
FoamFile
{
    version     2.0;
    format      ascii;
    class       volScalarField;
    location    "0.002";
    object      p_rgh;
}
// * * * * * * * * * * * * * * * * * * * * * * * * * * * * * * * * * * * * * //

dimensions      [1 -1 -2 0 0 0 0];


internalField   nonuniform List<scalar> 
449343
(
112333
112442
112607
112735
112681
112206
111128
109385
107052
104374
101676
99257.3
97322.7
95987.6
95308.9
112337
112446
112611
112739
112684
112207
111128
109385
107053
104377
101681
99261.7
97326.1
95990
95310.8
112344
112454
112619
112746
112688
112208
111126
109383
107054
104382
101689
99270.4
97332.8
95994.8
95314.4
112354
112464
112629
112755
112693
112206
111121
109376
107052
104387
101701
99282.9
97342.5
96001.5
95319.4
112365
112475
112640
112765
112697
112202
111114
109366
107048
104392
101715
99298
97354.3
96009.5
95325.4
112375
112486
112651
112774
112700
112200
111107
109361
107048
104400
101730
99314.4
97366.6
96017.8
95331.4
112383
112494
112658
112782
112703
112200
111106
109359
107052
104411
101743
99328.7
97377.1
96024.6
95336.4
112387
112498
112662
112785
112705
112200
111101
109352
107046
104413
101749
99334.8
97381.9
96028.2
95339.3
112387
112497
112662
112785
112706
112203
111109
109363
107056
104415
101747
99332.3
97380.5
96027.8
95339.5
112382
112492
112657
112781
112707
112207
111115
109369
107056
104408
101738
99321.3
97373.1
96024.1
95337.5
112375
112485
112650
112775
112707
112213
111125
109377
107059
104402
101725
99307.9
97363.7
96018.6
95334.3
112366
112476
112641
112768
112706
112219
111135
109389
107065
104400
101714
99295.3
97354.4
96013
95330.6
112358
112467
112633
112760
112703
112223
111142
109398
107069
104398
101704
99284.8
97346.6
96008.1
95327.4
112352
112461
112626
112755
112700
112224
111145
109402
107070
104394
101697
99277.4
97341.2
96004.6
95325.1
112348
112457
112623
112751
112698
112224
111146
109403
107070
104391
101693
99273.8
97338.5
96002.9
95323.9
112207
112371
112645
112928
113090
112844
111884
110048
107422
104371
101351
98722.5
96674
95284.4
94584.6
112211
112375
112650
112933
113094
112846
111883
110047
107424
104376
101357
98727.8
96677.4
95286.4
94586
112220
112384
112660
112943
113102
112848
111882
110046
107426
104385
101371
98738.6
96684.2
95290.4
94588.6
112231
112396
112673
112956
113110
112843
111870
110029
107421
104393
101390
98755
96694.2
95296.1
94592.3
112243
112410
112688
112970
113119
112833
111854
110010
107393
104402
101416
98776.3
96706.9
95303
94596.7
112255
112423
112702
112985
113125
112831
111845
110003
107398
104416
101442
98799.6
96721
95310.3
94601.3
112263
112433
112713
112996
113128
112835
111846
110002
107403
104437
101477
98824.3
96733.7
95317.1
94605.5
112268
112438
112718
113001
113132
112834
111838
109938
107391
104436
101485
98832.2
96738.5
95320.8
94608.1
112267
112436
112717
112999
113132
112838
111850
110006
107407
104441
101481
98828.1
96737.1
95320.3
94608.5
112261
112430
112709
112992
113132
112839
111853
110011
107406
104424
101450
98806.7
96727.7
95316.7
94607.5
112253
112420
112698
112980
113130
112844
111865
110022
107405
104414
101427
98786.6
96716.6
95312.3
94605.7
112243
112408
112685
112968
113123
112857
111884
110043
107434
104407
101403
98767.8
96706.4
95307.7
94603.6
112233
112398
112674
112957
113117
112863
111898
110063
107443
104401
101386
98753.4
96698.2
95303.8
94601.7
112227
112391
112666
112949
113111
112863
111901
110065
107442
104393
101374
98743.9
96692.7
95301.2
94600.4
112223
112387
112661
112944
113108
112862
111903
110067
107441
104389
101369
98739.5
96690.1
95299.9
94599.7
111876
112163
112692
113355
114054
114404
113804
111731
108333
104307
100501
97397.9
95102.3
93596.5
92852.7
111881
112169
112699
113363
114062
114407
113804
111732
108336
104317
100511
97404.5
95105.3
93597.5
92852.9
111890
112180
112713
113380
114079
114416
113800
111735
108343
104340
100536
97419.3
95111.4
93599.4
92853.2
111904
112196
112733
113404
114100
114400
113773
111717
108301
104358
100578
97444.4
95121.3
93602.3
92853.6
111919
112214
112757
113432
114123
114382
113672
111624
108223
104414
100635
97477
95135.1
93606.1
92854
111933
112233
112782
113462
114145
114355
113659
111613
108230
104452
100699
97516.5
95150.3
93610.5
92854.7
111944
112247
112797
113479
114143
114364
113653
111606
108230
104479
100838
97564.9
95168.3
93615.2
92855.9
111949
112254
112805
113489
114156
114379
113689
111720
108223
104480
100845
97574.6
95174.8
93619.8
92858.5
111947
112250
112801
113483
114147
114369
113658
111611
108235
104484
100842
97568.9
95171.7
93618.1
92859.1
111940
112240
112789
113469
114154
114364
113668
111622
108239
104461
100708
97524.5
95157.6
93617.3
92861.2
111929
112225
112768
113443
114135
114393
113685
111637
108237
104427
100647
97488.4
95145.5
93615.8
92863.3
111916
112208
112746
113417
114115
114415
113789
111734
108317
104374
100593
97458.4
95134.1
93614.3
92865.2
111905
112195
112728
113395
114096
114432
113817
111753
108362
104359
100554
97435.3
95126.2
93613.3
92866.7
111897
112185
112715
113380
114080
114426
113823
111752
108356
104337
100530
97421.8
95121.3
93612.6
92867.6
111892
112180
112709
113372
114072
114423
113824
111752
108354
104328
100520
97416
95119.1
93612.4
92868.2
111196
111667
112594
113917
115496
117060
117565
115001
109932
103877
98752.7
95005.7
92423.9
90803.4
90024.9
111201
111674
112604
113930
115511
117070
117560
115006
109935
103894
98768.1
95011.9
92424.6
90802.1
90023
111212
111687
112624
113959
115549
117100
117562
115037
109983
103960
98811.5
95027.1
92426.3
90799.3
90019
111227
111708
112655
114006
115600
117100
117390
115047
109829
104064
98897.2
95054
92429
90794.8
90012.6
111244
111732
112695
114058
115674
117100
116558
114862
110873
104315
99028.2
95104.9
92435
90788.8
90004.4
111261
111758
112739
114143
115764
116241
116507
114843
110934
105745
99166.9
95162.9
92445
90782
89996.5
111273
111777
112774
114153
115065
116262
116491
114801
110894
105772
100672
95218.5
92447.4
90777.3
89989.6
111279
111787
112792
114173
115077
116288
116527
114715
110898
105789
100660
95226.8
92466.5
90787.4
89991
111277
111780
112777
114157
115072
116278
116504
114799
110900
105785
100667
95222.8
92450.4
90780.3
89993.3
111269
111765
112747
114152
115774
116264
116505
114818
110906
105773
99178
95172.6
92453.8
90789.6
90003.4
111255
111743
112706
114069
115686
117113
116567
114870
110924
104331
99043
95118
92446.6
90799.3
90014.5
111240
111721
112669
114020
115615
117116
117408
115067
109850
104083
98915.3
95070
92443.1
90807.8
90025
111227
111703
112640
113975
115566
117118
117582
115059
110005
103982
98831.9
95045.2
92442.5
90814.2
90033.1
111218
111690
112621
113948
115530
117090
117582
115029
109960
103919
98790
95031.4
92442.1
90818.1
90038.4
111213
111684
112612
113936
115515
117081
117587
115025
109958
103902
98775.7
95026
92442.1
90820.2
90041.1
109932
110611
112013
114205
117179
120883
124441
120830
112268
102210
95346.1
91116.8
88429
86830.8
86093
109937
110618
112024
114221
117201
120906
124442
120845
112295
102246
95363.3
91116.9
88423.9
86825.4
86087.8
109947
110631
112047
114262
117274
120995
124472
120893
112404
102347
95413.4
91118.6
88413.1
86814.1
86077
109960
110652
112086
114346
117454
121110
122120
121058
114296
102791
95579.9
91131.8
88392.3
86794.7
86059.9
109975
110678
112148
114461
117562
119565
122058
121007
114364
105383
95758.7
91145.7
88368.1
86765.8
86035.3
109989
110709
112224
114650
116636
119730
122055
120866
114274
105694
98245.2
91236.5
88324.5
86741.7
86013.6
110000
110724
112273
114075
116754
119846
121105
120236
114814
106847
98437.7
93283.7
88223.4
86694.3
85984.4
110008
110741
112351
114112
116807
119890
121126
120227
114837
106887
98498.4
93344.3
88360
86697.7
85990.4
110004
110728
112278
114093
116789
119882
121112
120239
114817
106888
98490.4
93337.6
88226.8
86698.9
85989.6
109997
110717
112232
114659
116667
119765
121225
120252
114816
105783
98349.4
91248.8
88335.7
86750.6
86020.6
109986
110689
112160
114473
117575
119625
122029
120882
114245
105525
95777.6
91161.6
88381.5
86777.4
86047.2
109973
110666
112101
114361
117470
121128
122124
121083
114420
102818
95602.9
91151
88408.4
86809.1
86073.1
109962
110648
112064
114279
117292
121015
124495
120977
112433
102376
95438.4
91139.9
88431.6
86830.6
86092.4
109954
110635
112042
114240
117221
120927
124465
120890
112327
102277
95390.2
91139.5
88443.4
86842.7
86104.4
109950
110630
112032
114224
117199
120905
124465
120865
112302
102242
95373.9
91140.3
88449.3
86849.1
86110.4
107786
108632
110446
113517
118292
125335
131230
135268
119460
96711
88996.9
85146.9
82849.1
81602
81064.2
107788
108636
110453
113532
118324
125374
131247
135284
119480
96735.2
88996.2
85128.7
82833.8
81591.7
81055.9
107792
108644
110472
113566
118389
125501
131280
135331
119495
96743.2
88968.8
85075.3
82798.6
81568.5
81037.6
107797
108655
110507
113665
118811
123287
131376
135453
119590
101704
89034
84926.6
82728.7
81529.4
81007.2
107801
108664
110552
113863
117568
123680
131553
133138
121318
102397
92572.6
84771.4
82572.1
81454.3
80962.7
107801
108664
110647
113289
117679
122637
129671
132035
121230
104911
92699.2
87390.7
82407.1
81364.4
80913.5
107803
108657
110649
113374
117809
122724
128698
132027
121836
105946
94589.3
87414.5
82269.7
81276.1
80863.4
107793
108636
110575
113443
117128
122154
128739
131999
121784
105991
94569.5
87418.6
84420.6
81230.2
80859.8
107807
108662
110654
113413
117114
122745
128741
132004
121794
106003
94570.4
87384.6
82278.6
81282.7
80868.8
107809
108672
110656
113299
117787
122735
128686
132047
121866
105967
94649.1
87446.3
82417.6
81374.4
80923
107812
108676
110564
113877
117607
123749
129566
133030
121233
104799
92707.1
84792.2
82588.7
81468.2
80975.5
107811
108669
110522
113681
118829
123398
131423
135487
119658
101920
89063.5
84949.9
82746.9
81545.6
81022.3
107809
108660
110489
113584
118408
125522
131327
135374
119575
96784
89000.6
85101.2
82820.7
81587.2
81054.8
107806
108654
110472
113551
118344
125398
131266
135327
119537
96779.1
89029.8
85155.7
82855.9
81611.2
81074.2
107804
108651
110465
113537
118313
125359
131264
135309
119521
96756.6
89031.3
85174.5
82871.9
81622.3
81083.4
104473
105346
107269
110695
116550
124242
141823
170938
121087
87797.7
77581
76320.1
75497.6
75181.3
75075.8
104472
105344
107266
110691
116552
124261
141827
170937
121088
87796
77530.5
76268.2
75473
75168.6
75067
104467
105335
107254
110667
116484
124241
141788
170921
121067
87772.3
77409.3
76172.8
75421.1
75138.4
75047.3
104451
105309
107215
110516
115553
124514
141921
170803
120819
87817
80983.1
75739.3
75294
75077
75010.2
104430
105273
107110
110485
115686
123475
138640
170770
121811
91889.2
80578.6
78115
74985.6
74971.2
74952.7
104379
105141
107499
110566
115306
123545
137099
165771
127108
93960.9
82911.1
77914.8
76821.4
74835.2
74891.6
104377
105139
107515
110583
115363
122942
137021
165699
126998
93903.7
84234.9
79516.9
76741.9
74798.4
74856.6
104337
105095
107569
110610
115361
122912
136996
165678
126982
93884.5
84195.6
79478.7
76739.7
74811.5
74832.6
104381
105144
107528
110624
115371
122919
136998
165682
126989
93893.1
84210.6
79487.5
76710.2
74805.7
74861
104388
105149
107532
110576
115386
122952
137032
165711
127027
93926.7
84253.9
79552.6
76793.5
74847.1
74902.3
104442
105285
107122
110492
115725
123549
137130
165799
127160
94001.6
83073.3
78026.7
75005.5
74987.4
74967.2
104466
105324
107230
110532
115484
124531
138477
170754
121027
92304.5
80862.8
75767.6
75317
75096.1
75027.4
104483
105352
107272
110685
116502
124253
141877
170889
121070
87869.9
77449
76202.8
75445.5
75159.2
75066.4
104490
105362
107285
110711
116572
124291
141841
170958
121157
87869.5
77571.2
76300.1
75498.3
75190.3
75087.3
104492
105365
107289
110716
116571
124275
141845
170967
121171
87861.2
77621.2
76351.4
75523.3
75203.6
75096.8
99860.9
100494
101888
104320
108224
116145
125807
129339
20373.2
54992.5
61494.1
64882
66836.2
68032.4
68566
99857.8
100487
101875
104298
108205
116125
125793
129259
20313.8
54976.8
61401.2
64837.2
66825.1
68028.3
68564.7
99851.3
100472
101847
104277
108144
116053
125743
129234
20347.3
54962.1
61308.7
64825.4
66817.3
68023.1
68563.9
99815.3
100402
101736
104017
109224
115690
125528
129321
20442.9
55126.8
62781.3
64851.6
66802.1
68004.2
68557
99774.9
100321
101538
105066
109022
115925
126148
129023
20261.6
58637.5
64380.9
66301.7
66844.3
68004.8
68546.3
99670.1
100171
102675
104968
109350
116033
126004
128797
20022.3
59005.5
65374.9
66429
68093.3
68067.9
68544.9
99672.5
100165
102705
104901
109528
115976
125942
128811
19933.6
59063.7
65515.3
67416.2
68067.9
68106.2
68560.5
99644.4
100113
102679
105448
109529
115951
125918
128771
19891.6
59073.2
65556.7
67911.6
68132.8
68159.5
68564.3
99675
100168
102683
105445
109535
115956
125921
128785
19907.3
59083.6
65564.2
67915.7
68094.1
68114
68565.9
99680.5
100181
102714
104916
109541
115990
125952
128806
20007.1
59092.6
65532.1
67426.6
68069.5
68080.2
68556
99786.8
100333
101551
105043
109384
116058
126024
128813
20122.7
59041.1
65366.9
66318.7
66866
68022.7
68562.2
99829.3
100417
101751
104034
109153
115436
125307
129101
20390.7
57147.5
62685
64887.6
66829.6
68025.7
68575.8
99867.6
100489
101865
104296
108165
115889
125632
129293
20447
55049.8
61357.6
64862.3
66845.4
68046
68584.7
99875.5
100505
101894
104318
108227
116120
125773
129230
20522.3
55061.4
61449.3
64872.3
66852.9
68052
68586.6
99879.4
100514
101908
104341
108246
116162
125810
129246
20562.9
55068.4
61535.6
64915
66863.7
68056.4
68588.4
94145.9
94266.4
94507.6
94846.4
95513.9
100728
106218
122095
2225.59
32743.5
46910.3
54077.7
58599.9
61217.5
62371.2
94150.2
94266.2
94503.6
94840.3
95525.8
100712
106202
121923
2238.82
32760.6
46862.8
54088.2
58619.2
61232.1
62385.5
94165
94278.5
94509.3
94879.1
95559.9
100652
106151
121863
2249.92
32738.9
46896.1
54175.3
58683.3
61279.9
62424.1
94153.5
94238.9
94455.8
94932.5
98378.7
100564
105971
121887
2256.84
32950.1
47132.4
54464.9
58816.4
61358.6
62483
94141.5
94192.8
94441.9
96965.1
98426.9
102471
106994
121901
2264.53
32985.8
47869.5
55398.9
59053.2
61511.9
62568.6
94084.3
94189.8
96116.8
96915.4
99714.7
103295
106839
121437
2330.18
33553.7
48296.2
55466.7
59872.1
61675.9
62675
94100.4
94200.5
96102.2
96872.8
100344
103205
106780
121465
2356.13
33710.2
48411.4
55913.3
59911.8
61736.5
62722
94090.3
94173.7
96066.2
97939.1
100293
103173
106765
121430
2361.98
33702.1
48452
56163.4
59929
61791.1
62743.4
94104.7
94205.3
96068
97931.5
100300
103178
106769
121455
2379.05
33723.4
48462.2
56168.2
59919
61742.5
62727.3
94093.1
94199.2
96100.3
96908.3
100348
103222
106793
121470
2403.91
33754.2
48435.7
55932.7
59909.3
61688.7
62686.4
94153.1
94205
94455.5
96942.4
99777.2
103336
106867
121481
2402.19
33583.7
48317.6
55394.6
59077
61530.6
62584.9
94167.5
94253.5
94471.7
94951.3
98467.9
100728
106044
121971
2346.86
33143.6
47463.4
54503.6
58845.2
61380.6
62502.2
94180.5
94294.7
94526.9
94899.5
95585.1
100650
106094
121878
2376.85
32821.7
46948.9
54216
58713
61303.5
62445.3
94166.8
94283.7
94522.9
94862.4
95552.9
100715
106195
121892
2398.82
32816.2
46904.1
54122
58647.6
61256.4
62407.8
94163.3
94284.7
94527.7
94869.5
95542.3
100756
106235
121942
2410.5
32764.8
46933.6
54107.3
58626.9
61241.5
62393.8
87974.5
87503.5
86514.4
84893.2
84953.4
84640.1
88228.3
2339.4
26037.5
39199.8
47338.2
52785.8
56051
57539.4
87998.8
87528.3
86540.6
84921.5
84988.2
84650.5
88226.5
2365.59
26038.7
39217.7
47394.6
52827.7
56082.5
57568
88055.6
87591.7
86603.9
84986.3
85079.9
84693.3
88201.1
2374.9
25732.6
39354
47487.6
52917.9
56162.4
57634.3
88118.3
87658.3
86659.5
85191.3
85617.3
84700.3
88035.7
2358.17
25756.9
38416.5
47814.4
53097.2
56289.7
57735
88210.2
87748.4
86901
87478.4
86253.9
87033.3
88782.1
2282.51
22870.7
37931.6
47670.6
53335.9
56490.6
57864.7
88267.2
87935.6
88625.9
87745.4
87787.5
88089.6
88675.4
2286.64
22691.4
37699.1
47777.9
53478.7
56605.6
58013.8
88332.5
88020.9
88599
87860.7
88662.8
88144.2
88685.2
2293.24
22764.9
37786.6
47627.8
53584.6
56649.3
58058
88339.4
88026.6
88597.2
88842.4
88752.7
88175.8
88707.4
2299.72
22783
37824.4
47582.4
53596.2
56696.2
58083.4
88337
88026.2
88583.8
88853.4
88756.3
88176.8
88709.6
2305.88
22803.9
37835.4
47586.4
53588.5
56652.3
58060.2
88275.4
87944.6
88590.7
87859.1
88669.5
88150.9
88694.6
2313.03
22820.8
37815.8
47639.6
53573.9
56620.2
58028.4
88221
87760
86913.7
87505
87778.4
88109.6
88700
2318.89
22787.6
37761.7
47726.3
53359.2
56508.7
57878.5
88131
87671.7
86674.7
85210.3
85831.8
84881.8
87789
2316.51
24024.7
38610.2
47849.5
53123.6
56308.8
57752.4
88069.2
87606.2
86620.3
85006.7
85265.5
84746.1
88159.5
2455.7
25651.6
39410.5
47528.7
52945.9
56184.9
57654.3
88013.1
87543.6
86558.2
84943.3
85066.2
84714.2
88261.6
2511.57
26107.7
39259.7
47425.4
52854.4
56104.8
57588.5
87989.3
87519.2
86532.4
84915.7
85001.1
84689.8
88279.5
2510.99
26162.8
39223.2
47365.2
52810.9
56073.7
57560.7
82246.9
81245.5
79118.9
75334.6
73462.5
66309.7
62107.5
2206.11
2211.92
23477.2
36827.8
44762.4
50092.7
53313.9
54810.2
82296.1
81300.5
79182
75407.4
73521.6
66344.6
62129.9
2215.38
2221.44
23598.7
36849.3
44831.4
50139.1
53349.4
54841.5
82399.4
81418.6
79307.2
75506.5
73640.5
66417.9
62188.4
2224.32
2230.53
19650
37041
44953.2
50235.6
53430.1
54908.4
82539
81587.3
79444.2
75740.9
73826.6
66477.6
62277.9
2240.16
2283.74
20500.9
34630
45176.4
50392.9
53547.6
55006.6
82732.6
81802.3
79731.3
78794.4
73964.8
69573.6
64143.2
2232.9
2289.15
17987.6
33294.7
43861.8
50574.1
53721.6
55118.4
82897.1
82069.5
81737.1
78974.5
76065
71060.5
64157.2
2242.49
2290.05
17833.2
32664.5
43935.1
49923.5
53811.2
55246.5
83006.6
82193.9
81829.2
79039.6
77029
71231.2
64300.6
2253.16
2290.27
17828.3
32715.7
43231.9
50021.3
53843.7
55279.2
83032
82231
81864
80334.7
77126.3
71338.5
64381.5
2267.07
2290.4
17854.6
32749.1
42902.5
50057.9
53880.9
55305.8
83010.7
82199.1
81848.3
80349.3
77126.3
71336.3
64384.5
2278.13
2290.66
17867.1
32755.9
42906.8
50053.6
53845.2
55280.5
82904.7
82078.6
81793.6
79022.9
77048.3
71228.4
64307.1
2286.49
2291.09
17872.1
32735.9
43250.1
50025.8
53823.9
55257.3
82741.8
81812.5
79743.4
78884.1
76054.3
71063.6
64177.9
2299.08
2291.16
17926.2
32723.5
43919.1
50592
53735.7
55129.7
82549.1
81598.2
79457.4
75761.2
73877
66561.9
62226.7
2306.36
2291.25
19190.6
34684.4
45209.1
50416.8
53564.7
55021.4
82409.5
81429.5
79320.4
75526.6
73698.8
66497.7
62324.8
2318.43
2324.11
19957.4
37097.2
44986.8
50259.3
53449.3
54925.1
82306.1
81311.1
79194.8
75427.4
73593.4
66431.8
62250
2333.05
2333.41
23672.2
36898.4
44863.7
50162.6
53368.4
54858.8
82256.8
81256
79131.6
75355
73507.1
66386.3
62213.1
2342.48
2342.59
23523.3
36871.3
44792.9
50115.9
53333.3
54828
77782.8
76399.6
73424.2
68055.4
58705.5
49089.5
23457.1
2258.49
2241.77
27148.5
38678.5
45464.6
50231
52996.2
54296.9
77853.2
76482
73526.6
68194.8
58890.5
49168.3
23486.8
2259.75
2249.79
27207.6
38624.2
45532
50264.3
53025
54321.3
77993.1
76647.6
73728.3
68421.6
59247.8
49072.9
23591.6
2260.22
2257.8
22630.7
38729.4
45696.5
50343.7
53091.6
54371.7
78182.8
76896.4
73975.5
68933.4
63789.5
49428.4
24344.8
2260.31
2270.72
21646.3
35113.2
45909
50439.6
53179.7
54445.6
78431.3
77203.7
74419.9
71922.5
64413.5
53901.9
30700
2289.67
2279.44
17856.5
33395.5
43800.2
50602.3
53322.2
54521.9
78663.3
77473.7
76428
72325.5
66920.4
56353.8
31614
2288.78
2281.7
17874.7
32550.5
43879.1
49332.2
53401.2
54633.1
78791.7
77614.6
76674.4
72530.5
68132.6
56888.2
32011.7
2321.5
2282.12
17906
32621.4
42779.5
49409.1
53430.8
54651.8
78830
77667.2
76770
73883.5
68290.1
57129.3
32157.1
2298.25
2281.61
17935.8
32662.9
42243.7
49445.2
53466.1
54669.9
78795.5
77619.8
76741.6
73882.8
68285
57124
32161.9
2305.89
2281.74
17944.9
32664.5
42246.4
49452
53433.4
54653.5
78669.7
77481.7
76612.1
72451.9
68125.3
56863.6
32013.5
2380.56
2282.4
17934.1
32625.5
42797.3
49429
53408.4
54639.1
78438
77211.3
74428.6
72254.6
66841.9
56304.9
31603.9
2363.03
2281.59
17928.3
32581.7
43865.4
50612.3
53330.5
54528.1
78188.8
76902.6
73982.6
68942.9
64092.3
49994.8
26135.9
2285.11
2280.8
19424.8
35252.7
45934.8
50457.1
53192.2
54455
77997.7
76651.8
73731.7
68425.3
59252.8
49312.3
24160.2
2262.25
2337.25
22616.9
38772.1
45718.5
50361.4
53105.2
54382.6
77856.3
76484.2
73526.9
68194.1
58892.4
49214.3
23667.1
2266.6
2345.05
27311.7
38670.3
45557.9
50282.6
53038.7
54333
77785.1
76400.7
73423.1
68053.8
58707.8
49164.9
23628.3
2266.31
2353.01
27269.8
38734.4
45493.7
50250.7
53010.4
54309.1
75171.5
73757.1
70728
65445.5
56734.6
46484.8
16360.5
2164.87
2572.55
34511.4
43421.2
49013.1
52659.9
54689.9
55662.8
75255.3
73860.6
70869.1
65666.1
57097.4
46892.9
16614.8
2181.1
2706.6
34277.4
43352
49056.5
52666.1
54704.4
55676
75417.3
74057.6
71144.6
65955.7
58120.7
46037.3
17283.3
2199.5
2247.41
28220.7
44156.9
49301
52744.7
54753.5
55707.9
75638.3
74370.9
71533.7
66843.6
60752
46895.7
19136.9
3802.92
2284.55
28313.1
40198.2
49566.4
52809.1
54814.6
55756.6
75917.7
74743.2
72153.9
68969.2
62010.2
51200.2
32324.9
3373.21
2114.13
24164.2
38670.2
47255.1
52965.7
54911.4
55811
76180.9
75062.3
73556.1
69661.6
63978.8
54155
38106.1
5576.88
2122.6
24809.9
37867.4
47399.2
51407.4
54984.7
55886.5
76319.7
75225.5
73855.8
70029
65034.9
55389.4
39945.5
6494.04
2099.84
24935.4
38013.4
46126.9
51475.6
55000
55895.5
76367.9
75287
73999.7
70913.2
65337.4
55828
39802.5
4802.62
2099.09
24997.3
38077.5
45488.3
51504.5
55018.8
55916.8
76322.9
75229.6
73973.2
70903.6
65330.5
55825.1
39884.5
5096.5
2098.85
24996.9
38073.5
45489
51510.6
55001.5
55897.7
76185.8
75068.5
73781.4
69911.7
65009.5
55333
39807.8
6568.45
2101.9
24941.3
37998.8
46138.4
51489.7
54986.5
55888.6
75921.4
74747.2
72157
69461.8
63795.9
53959.6
37780.9
6039.7
2136.15
24790.4
37853.1
47370.6
52967.3
54913.3
55813.5
75639.6
74371
71531.1
66836.9
61329
48497.5
29430.6
2651.66
2141.13
25951.9
40601.3
49571.8
52814.2
54819.3
55760.7
75415.2
74052.9
71133.6
65934.1
58088.3
46392
18526.1
2595.78
2355.6
28719
44166
49307.8
52751.1
54758.9
55712.6
75250.1
73851.2
70850.2
65630.3
57036.5
46818.7
16651.2
2406.73
2885.18
34351.8
43370.6
49066.4
52672.8
54710.1
55681.2
75164.5
73745
70704.7
65402.9
56661.6
46391
16425.8
2420.79
2792.59
34597.6
43441.1
49025.5
52667.9
54696.4
55668.7
74558.4
73538.6
71429
68140.8
62777.9
54068.5
58966.7
48876
72380.7
57133.8
54086.3
55437.2
56906.9
57831.8
58350.1
74644.5
73647.3
71590.8
68432.8
63318.5
55435.3
61604
50597.6
70984.8
56602.5
53819.9
55372
56857.7
57823.6
58345.9
74806
73838
71887.8
68703
64736.5
55837.3
51633.9
51292.6
55748.4
48950.9
53614.8
55417.7
56872.3
57837.9
58351.7
75026.9
74135.7
72248.5
69333.2
64763.7
57150.1
47954.4
34024.7
44372
47415.3
50384.5
55391.3
56871.4
57865.3
58364.6
75297.5
74484.7
72764
70017.2
65688
58155.3
42186.7
16983.1
38865.6
43616
49068.5
53426
56957.2
57921.6
58387.8
75550.5
74782.6
73301
70625.2
66486.1
60036.3
48245.3
19971.1
37467.7
44397.4
48319.5
53501.4
55388.8
57958
58435.6
75684
74936.3
73577.3
71007.5
67127.8
61374.7
50220.8
18860.3
37828.4
44694.3
48498.1
52296.8
55418.3
57957.7
58429.9
75737
75000
73714.7
71323
67478.7
61932.8
50992.5
19660.6
38536.6
44845.2
48577.9
51653.7
55443
57967.7
58444.2
75687.1
74940.6
73696.7
71312.5
67476.7
61928.4
50921.9
19491.1
38487
44833.5
48570.3
51651.9
55442.1
57957.2
58430.6
75554.9
74788.7
73506.2
70901.8
67110.1
61324.1
50183.9
18950.8
37715.6
44662
48470.3
52295.4
55429.8
57955.8
58434.2
75299.9
74487.4
72766.4
70417.2
66321.9
59846.6
47423.7
19853.1
37449.7
44310.1
48263.1
53475.2
56951.5
57918.4
58386
75025.2
74131.7
72239.1
69313.6
65120
57872.6
41624.2
17623.5
38169.1
45038.7
50727.8
55380.1
56866.2
57862.8
58362.9
74798.9
73826.2
71864.1
68654.7
64640.3
56732.7
51756.8
49871.4
54328.4
47783
53577.6
55402.2
56865.5
57834.7
58349.6
74632.7
73628
71553.2
68356.5
63145.3
55099.5
60280.6
49796.2
70669.9
56500.3
53772.5
55353.9
56849.8
57819.7
58343.8
74543.6
73515
71383.8
68050.9
62572.9
53679.1
57454.7
47818.3
71991.4
57003.9
54026.1
55417.3
56898.2
57828.1
58348.3
75435
75016.3
74276.5
73345.8
74794
70550.1
92051.6
84395.7
85608.3
67742
64837.8
62553.5
61918.9
61683.7
61724
75509.1
75105.7
74387.3
73605.4
74845.1
71359.1
91165.4
83985.8
83671.7
67506.3
64466.3
62380.4
61805.7
61647.3
61696.7
75641.4
75236.9
74576.3
73834.1
73889.4
71703.3
78756.6
85498.9
75054.5
66079.7
62979.1
62043.8
61610.8
61589.5
61659
75813.5
75438.3
74757
73875.9
72070.7
71892.9
76905.6
85537.9
74260.2
64719.3
61129.1
61478
61473.7
61527.5
61616.2
76022
75680.6
74974.4
73418.7
72113.9
70019.1
69427.3
78087.9
75495.3
62962.8
59938
60029
61347.4
61512.7
61583
76226.7
75879.8
74822
73681.3
71742
69566.7
68242.4
81010.4
77682.1
63003.1
59387
59892.6
60035.6
61445.8
61587.5
76336.7
75993.8
74951.8
73947.9
71822.1
70147.4
69235.9
83403.5
78133.1
63163.4
59380.4
59066.5
60014.8
61419.8
61561.9
76386.3
76049.2
75064.2
73765.1
72059.4
70510.1
69799.7
84042.3
77981.4
63206.3
59393.4
58672.4
60004.6
61420.4
61568.2
76340.5
75999.9
75054
73764.6
72069.2
70518.8
69800.4
83939.2
78036.7
63207.8
59389.4
58668.8
60008
61418.4
61561.1
76232.3
75887.8
74915
73896.8
71844.8
70169.4
69160.1
83152.7
78144.2
63151.1
59363.3
59082
60038.5
61442.4
61584.3
76025.6
75685.6
74982.7
73548.6
71672
69589.4
68270.3
80583
77592.3
62957.8
59381.7
59896.5
61339.3
61507.3
61578.8
75812.5
75435.8
74750.8
73864.4
71878.7
71516.6
71393.5
75957
74960.4
63449.7
60922.8
61460.6
61464.4
61521
61611.1
75634.3
75225.1
74553.7
73792.8
73821.1
71898.5
77649.9
84698.6
73625.7
65512.7
62937.7
62022.7
61597.5
61581.2
61652.8
75496.2
75085.1
74347.4
73534.3
74685.7
71200.9
90872.7
83751.8
83561
67415.1
64406.4
62352.8
61790.5
61637.9
61690
75418.4
74990.5
74227.6
73265.1
74632.2
70369.3
91670.3
84114.8
85485.2
67630.3
64768.9
62523.1
61901.4
61674
61717.4
76825.2
76764.6
76902.3
76463.5
79865.4
76276.1
82697.6
79344.9
74975.8
69056.3
69301.2
66736.1
65915.3
65232.5
65042.7
76885.4
76844.5
76953.2
76705.5
79684.5
76751.9
82994.3
79794.4
75070.2
69369.6
69151.5
66659.8
65830.8
65196.4
65004.3
76985.9
76944.2
76989.2
77130.2
78445.3
77494.5
80846.2
84654.3
76319.6
70399.2
68254.3
66548
65560.5
65111.3
64932.2
77113.7
77076.8
77099.2
77254.4
77246.2
78310.6
81952
86628.6
78973.3
70892.2
67430.8
66143.2
65411.5
64981.7
64848.6
77262.8
77251.5
77233.6
76662.7
77117.3
77908.6
80810.7
86717.1
79152.3
71214.5
66964.4
65283.2
65160.4
64891.2
64754.7
77416.4
77381.4
76815.7
76787.1
76737.6
77441.8
80411.7
84144.5
78758.4
71129.4
66720.8
65115.5
64302.5
64755.9
64699.4
77503.4
77477.9
76894.9
76957.5
76597.2
77466.6
80248.6
82847.4
78289.1
71031.4
66639.5
64713.9
64236.9
64702.8
64650.4
77546.9
77525.8
76960.4
76751
76634.5
77563.9
80307.2
81811.4
77925.4
70946.1
66598.9
64523.2
64184.4
64686.7
64647.3
77508.3
77485.3
76955.9
76745.3
76658.9
77591
80338.4
81957.5
77979.4
70960.9
66600.6
64522.8
64202.2
64701.7
64649.3
77424.2
77393.2
76888.4
76937.6
76657.4
77563.3
80364.9
83121.2
78414
71060.6
66639.6
64717.1
64272.5
64752.9
64696.4
77269.9
77261.8
77250.1
76743.6
76750.3
77608.9
80634.9
84591.1
78907.2
71152.7
66728.8
65160.1
65152.5
64886.5
64750.7
77117.2
77081.5
77105
77266.7
77047.7
78588.9
81432.3
86983.6
79203.1
71116.4
67235.6
66129.8
65405.8
64975.7
64843.6
76984.3
76941
76982.4
77117.8
78434.1
77877.1
81913.9
84797.1
77747.6
70802.9
68235.4
66536.4
65549.4
65103.7
64926
76878.7
76834.4
76932.4
76670.4
79648.4
76720.7
83007.4
79808.6
75082.6
69341.4
69130.5
66645.5
65820.8
65188.6
64997.9
76814.4
76750.1
76872.1
76415.5
79829.8
76242
82733.7
79364.6
74990.5
69020
69276.7
66720.5
65902.6
65224.4
65036.4
77960.4
77916.1
78235
77224.8
79802
77573.6
77664.6
75855.3
72417.7
70700
70718.5
68979.4
68626.2
68008.6
67835.3
78021.7
78016.4
78297.1
77602
79846.5
78060.2
78792.9
76611.1
73195.2
71187
70836.8
69043
68618.4
68000
67809.2
78121.6
78162.7
78339
78374.8
79217.6
79213.3
79903.3
79596.4
75779
72634.4
70746.5
69261.2
68456.5
67970.1
67745.2
78257.4
78328.1
78539
78934.3
79154.1
80201.4
81540.3
81033.2
77316.7
73220.7
70707.2
69294.1
68421.2
67873.8
67676.2
78401.6
78513.6
78801
78756.3
79672.4
80644.6
81979.8
81243.1
78004.6
73860.7
70707
68892.1
68255.7
67775
67570.3
78530.9
78649.7
78528.4
78955
79544.9
80607.2
81742.7
80400.1
77707
73851.7
70674.1
68849.5
67752.9
67640.9
67492
78612.1
78745.9
78641.7
79206.8
79561.5
80548.6
81589.7
80017.7
77443.5
73757.4
70629.1
68643.9
67691.5
67588.6
67436
78652.2
78794.5
78700.4
78976.5
79554.5
80567.8
81664.2
80073.3
77327.6
73687.5
70593.5
68529
67662.9
67565.2
67427.8
78617.4
78752.6
78689.4
78974.7
79582
80598.7
81674.1
80074.8
77351.5
73700
70597
68529.4
67669.7
67588.5
67435.9
78540.6
78663.2
78612.6
79184
79631.8
80647
81670.1
80128.8
77519.3
73789.6
70634.2
68646.7
67716
67639.6
67490.5
78412.2
78527.8
78820.8
78870.2
79543
80787.6
81918.2
80607.2
77821.3
73886.1
70675.4
68883.5
68252.7
67772.8
67568.2
78266.6
78340
78554.5
78958.7
79337.9
80808.1
81810.2
81444.1
78042.7
73686.2
70709.6
69292
68416.8
67870.2
67673.4
78127.8
78169.4
78346.7
78377.4
79241.8
79787.3
81579.4
80084.3
76618.6
73063.8
70741.5
69256.2
68448.6
67965.9
67741.5
78024.2
78016.8
78295.1
77560.8
79897.6
78027.9
78794.9
76612.6
73201.9
71177.3
70833.7
69037.7
68616
67996.5
67806.1
77959.6
77911.5
78224.2
77139.7
79894.2
77543.4
77667.8
75831.9
72383.9
70676.7
70712.1
68972.9
68621.6
68005.2
67832.3
78777.9
78746.5
78984.3
78670.3
79559.6
79652.9
79411.8
77953.1
75596
73767.6
72585.9
71212.7
70841.4
70292.4
70149.4
78843.1
78842.7
79076.4
78869.9
79749.1
79779
79798.4
77973.8
75825.2
73879.9
72662.9
71270.2
70853.4
70296.6
70139
78953.3
79008.7
79201.6
79364.8
79943.8
80296.3
81513.3
78869.9
76645.2
74489.4
72686.3
71465.1
70781.5
70308.5
70099.4
79111.9
79212.5