/*--------------------------------*- C++ -*----------------------------------*\
| =========                 |                                                 |
| \\      /  F ield         | OpenFOAM: The Open Source CFD Toolbox           |
|  \\    /   O peration     | Version:  v2012                                 |
|   \\  /    A nd           | Website:  www.openfoam.com                      |
|    \\/     M anipulation  |                                                 |
\*---------------------------------------------------------------------------*/
FoamFile
{
    version     2.0;
    format      ascii;
    class       volScalarField;
    location    "0.033";
    object      p;
}
// * * * * * * * * * * * * * * * * * * * * * * * * * * * * * * * * * * * * * //

dimensions      [1 -1 -2 0 0 0 0];


internalField   nonuniform List<scalar> 
449343
(
105878
106026
106276
106534
106669
106488
105767
104437
102548
100306
98001.8
95910.4
94224.6
93055.7
92459.9
105867
106016
106268
106528
106665
106486
105768
104443
102558
100320
98018.7
95927.3
94239.9
93069.3
92472.4
105864
106014
106269
106533
106674
106500
105788
104470
102595
100366
98069.8
95978.2
94287.5
93113.3
92514.3
105866
106019
106279
106549
106695
106527
105824
104517
102655
100438
98149.7
96057.8
94361.9
93182
92579.6
105873
106029
106294
106570
106722
106562
105870
104576
102732
100529
98249
96156.4
94453.4
93266.2
92659.5
105880
106039
106309
106593
106751
106600
105920
104642
102814
100626
98353.7
96259.7
94548.9
93353.8
92742.5
105885
106046
106321
106610
106774
106635
105966
104699
102886
100712
98443.5
96350
94632.5
93430.7
92815.8
105884
106047
106325
106619
106787
106657
105995
104739
102933
100769
98504
96409.9
94689.3
93484.5
92867.9
105876
106039
106318
106614
106786
106661
106005
104753
102952
100786
98521.6
96428.9
94710.5
93507.4
92891.7
105861
106024
106301
106596
106769
106645
105990
104738
102932
100761
98496.5
96406.1
94695
93498.3
92886.4
105839
106000
106274
106567
106737
106612
105954
104696
102883
100703
98437.6
96351.3
94649.4
93460.7
92852.1
105814
105973
106244
106532
106699
106572
105909
104641
102817
100630
98360.4
96279.1
94587.3
93408.2
92805.5
105788
105945
106212
106496
106660
106530
105858
104583
102749
100553
98281.1
96204.6
94521.8
93351.1
92753.2
105763
105918
106183
106463
106623
106489
105813
104531
102689
100487
98213.5
96140.9
94464.7
93300
92705.5
105740
105894
106158
106436
106594
106458
105778
104492
102646
100442
98167.6
96097
94424.3
93262.6
92669.9
105707
105902
106252
106661
106980
107020
106433
105041
102898
100317
97713.9
95423.8
93627.9
92405.5
91788.8
105696
105892
106244
106656
106977
107020
106436
105048
102912
100336
97735.7
95444.5
93646
92421.2
91803.1
105692
105891
106246
106664
106990
107037
106457
105079
102955
100393
97798.3
95504.2
93699.6
92469.6
91848.7
105695
105896
106258
106683
107014
107064
106492
105125
103023
100481
97897.3
95598.7
93783.9
92545.3
91919.8
105702
105907
106276
106709
107049
107100
106544
105196
103105
100595
98025.1
95718.8
93889.2
92638.9
92007.3
105709
105919
106295
106738
107086
107147
106600
105275
103213
100720
98162.5
95848
94001.2
92737.2
92098.8
105714
105927
106310
106761
107113
107194
106657
105346
103310
100834
98290.4
95963.8
94100
92824.6
92180.1
105713
105928
106314
106772
107129
107219
106691
105349
103366
100904
98367.1
96036.9
94165.7
92885.4
92237.9
105705
105920
106307
106766
107127
107224
106705
105416
103395
100925
98383.1
96056.1
94188.8
92910.2
92263.7
105689
105903
106287
106744
107108
107200
106684
105394
103364
100883
98333
96019.2
94166.9
92898.3
92256.2
105667
105878
106256
106706
107066
107157
106640
105340
103292
100806
98248.1
95943.2
94109.3
92853.1
92218.9
105642
105849
106222
106666
107021
107117
106588
105271
103215
100705
98140.2
95848.9
94034.3
92793.3
92166.2
105616
105820
106188
106626
106976
107069
106533
105206
103131
100606
98036.5
95756.1
93957.3
92728.9
92108.2
105591
105793
106157
106590
106934
107024
106483
105145
103058
100523
97952.3
95680.2
93892.2
92672.4
92056.2
105568
105769
106131
106561
106903
106990
106445
105102
103008
100469
97898.7
95630.5
93847.8
92632.3
92018.4
105272
105575
106152
106923
107708
108317
108138
106585
103766
100293
96956.8
94216
92181.6
90845.7
90185.6
105260
105565
106145
106919
107709
108321
108142
106597
103787
100323
96989.3
94244.9
92205.6
90866.1
90204.1
105256
105563
106149
106933
107730
108346
108165
106639
103845
100408
97079.7
94324.2
92272.5
90924.5
90258.2
105257
105570
106165
106961
107769
108381
108190
106697
103916
100538
97229.7
94454
92378.9
91016
90342.5
105264
105582
106190
107001
107820
108417
108209
106739
104008
100729
97429.3
94623.9
92516.1
91131
90447.3
105271
105596
106218
107045
107881
108470
108270
106852
104180
100937
97667.8
94816.2
92665.4
91254.4
90558.3
105276
105607
106238
107085
107914
108543
108352
106966
104341
101105
97930.6
94994.8
92802.9
91365.8
90658
105275
105609
106244
107103
107946
108591
108438
106952
104440
101208
98040.2
95097.1
92890.2
91443
90729.3
105267
105599
106235
107092
107937
108579
108422
107075
104480
101235
98059.2
95120.6
92918.3
91472.7
90760.4
105251
105580
106210
107052
107908
108536
108389
107032
104419
101170
97919.1
95051.6
92879.5
91453.9
90750.2
105228
105551
106169
107001
107845
108488
108335
106943
104288
101033
97740
94922.3
92795.7
91395.6
90703.5
105203
105520
106128
106946
107782
108442
108312
106897
104188
100845
97554
94775.5
92690
91317.2
90638.1
105177
105491
106089
106894
107717
108380
108255
106798
104073
100684
97384
94638.3
92586.9
91236
90567.5
105153
105463
106055
106850
107663
108321
108194
106714
103968
100557
97258.8
94534.3
92503.8
91167.3
90506
105130
105439
106028
106819
107626
108282
108151
106660
103903
100484
97187.6
94471.6
92450.6
91121
90463.2
104446
104906
105825
107178
108829
110487
111483
109623
105314
99969.2
95389.7
92025.2
89710.5
88261.6
87566.7
104432
104894
105818
107177
108835
110495
111483
109638
105341
100012
95435
92063.3
89741.5
88288
87590.7
104424
104891
105823
107198
108873
110539
111509
109706
105437
100155
95566.1
92166.3
89824.6
88359.5
87656.4
104422
104895
105843
107243
108937
110616
111410
109811
105490
100418
95809.8
92342.7
89959.7
88472.2
87758.8
104424
104907
105876
107305
109035
110648
110717
109632
106393
100824
96156.3
92595.6
90140.5
88617.1
87887.9
104429
104922
105920
107406
109163
109912
110701
109752
106678
102259
96622.5
92898
90348.3
88774.9
88026.7
104432
104935
105953
107471
108543
110013
110787
109903
106902
102564
98084.5
93169.5
90542.3
88922
88153.6
104430
104938
105965
107494
108567
110087
110906
109951
107077
102775
98267.2
93320.3
90671.9
89027.5
88244.9
104422
104926
105948
107476
108566
110084
110908
110079
107156
102850
98355.2
93358.9
90704.8
89066
88287.5
104407
104904
105912
107414
109197
110007
110864
110048
107088
102777
97065.2
93254.8
90650.4
89041.5
88276.3
104387
104873
105851
107302
109073
110734
110881
109954
106918
101312
96641.1
93026.1
90521.7
88963.7
88216.7
104365
104843
105802
107225
108956
110679
111571
110098
105920
100894
96285.6
92787.6
90371.6
88860
88133.9
104343
104814
105757
107153
108860
110558
111612
109916
105748
100540
95982.6
92583.3
90231.2
88755.2
88045.7
104321
104788
105721
107101
108788
110474
111533
109784
105575
100320
95790.2
92439
90123.3
88669.6
87970.9
104300
104765
105694
107067
108746
110426
111489
109715
105489
100219
95693.1
92358.6
90058.1
88614.6
87921.1
103032
103664
104975
107062
109985
113646
117581
114977
107666
98583.1
92299.6
88438.4
86008.8
84575.9
83917.4
103014
103648
104964
107058
109992
113659
117572
114981
107695
98635.4
92351.3
88479.8
86044
84607.2
83946.5
102999
103637
104965
107082
110053
113739
117621
115042
107861
98825.1
92512.2
88594.8
86138.3
84690.3
84023.2
102986
103632
104980
107157
110237
113974
115360
115228
109568
99489.7
92906.6
88818.8
86296
84822.8
84143.7
102976
103631
105013
107245
110387
112521
115441
115344
109959
102082
93445
89139.1
86520.2
84996.7
84298.1
102969
103643
105077
107478
109573
112787
115615
115478
110292
102783
96004.7
89608.3
86775.8
85196.2
84467.7
102962
103639
105086
106905
109659
112975
114811
115037
110955
104175
96678.6
91718.2
87002
85368.3
84623.3
102959
103643
105148
106904
109725
113072
114963
115273
111363
104638
97137.9
92044.5
87277.5
85501.5
84745.7
102950
103627
105073
106888
109714
113077
114991
115396
111510
104823
97258.3
92146.4
87238.1
85564.2
84799.6
102946
103623
105065
107478
109606
112939
114968
115325
111382
103769
96881.9
90143.7
87210.7
85556
84794.3
102935
103592
104980
107229
110416
112687
115717
115807
110759
103236
94235.2
89781.2
87047.2
85455.4
84725.4
102926
103576
104931
107123
110233
114020
115551
115648
110379
100279
93623.7
89443.5
86848
85327.2
84624.5
102913
103555
104888
107018
110014
113748
117681
115358
108266
99364.4
93083.4
89149.6
86667.6
85197.3
84517.7
102899
103536
104858
106964
109918
113614
117584
115157
107979
99041.6
92818.2
88967.5
86534.7
85093.7
84429.1
102883
103517
104834
106931
109873
113557
117544
115061
107867
98899.1
92693
88870.6
86457.9
85030
84372.1
100784
101538
103164
105949
110384
117368
123071
128541
114971
93813.5
86477.3
82900.2
80816.1
79711.1
79240.9
100759
101514
103143
105936
110386
117374
123059
128518
114933
93814
86507.5
82929.2
80849
79744.4
79273.2
100729
101487
103123
105925
110411
117434
123069
128528
114939
93876.8
86590.1
83005.1
80940
79833
79357.7
100695
101459
103114
105981
110785
115298
123210
128708
115116
98639.1
86979.7
83144.8
81095
79978.2
79492.1
100658
101421
103085
106048
109596
115610
123597
126472
116786
99820.6
90687.7
83456.5
81290
80161.7
79666.9
100629
101388
103137
105675
109746
114766
121948
125718
117410
102852
91567.6
86342.2
81578
80372.7
79863
100598
101344
103124
105722
109914
114848
121191
126105
118693
104764
93992.6
86945.1
81824.8
80559.3
80043.6
100581
101314
103165
105791
109300
114415
121370
126558
119623
105769
94708.1
87418.6
84066.1
80687.7
80186.7
100584
101331
103112
105754
109291
114901
121435
126804
120135
106289
95040.2
87554
82193.3
80823.9
80273.8
100604
101362
103111
105641
109859
114875
121319
126649
119839
106075
94840.6
87429.1
82193.6
80847.2
80284.1
100614
101376
103038
106006
109576
115756
121977
127198
118571
104115
92390.3
84417
82012.2
80761.5
80212.7
100633
101399
103055
105918
110721
115342
123413
129213
116230
100199
88019.9
84004.3
81822.2
80623.8
80099.2
100641
101397
103032
105834
110319
117351
123122
128787
115624
94638.2
87346.9
83726.9
81616.4
80472
79977.1
100642
101397
103025
105817
110267
117257
123001
128602
115258
94328.2
87103
83548.5
81468.4
80355
79877.2
100633
101386
103012
105795
110228
117213
122970
128533
115135
94184.5
86967.5
83444.8
81383.9
80284.5
79814.4
97485.9
98213
99834.5
102782
107801
114716
131311
161457
119174
86111.6
75917.7
74658.3
73953
73731.5
73673.2
97450.2
98176.1
99795.7
102742
107766
114694
131267
161388
118788
85936.8
75881.4
74655.9
73978.4
73764
73706.9
97398
98117.8
99728.1
102645
107636
114655
131159
161297
118570
85866.6
75813.6
74680
74056.8
73850.5
73795.6
97331.3
98044.1
99641.7
102417
107040
115004
131156
161154
118387
86130.2
79512.8
74596.6
74188.6
73994.4
73939.4
97244
97928.8
99430.5
102499
107040
114122
128223
161056
119758
90661.2
79829.7
77326.4
74300.7
74181.7
74129.2
97159.3
97768.3
99924.1
102534
106790
114078
126824
156185
125513
93912.5
83111
77872.4
76521.1
74395.1
74351.4
97106.4
97704.9
99906.5
102513
106800
113662
126745
156376
127705
96226.1
85738.4
80298.1
76896.6
74667
74575
97067.7
97664.5
99952.2
102523
106784
113623
126722
156811
131497
99096
87188.7
81063.6
77360.7
74876.9
74724.8
97092.9
97689.2
99902.1
102531
106789
113601
126694
157048
133874
100554
87888
81422.7
77512.9
74991.2
74862.8
97134.3
97738.8
99900.9
102453
106767
113592
126655
156696
132065
99424.8
87427.9
81226.5
77476.6
74979.3
74872
97200.4
97880.6
99365.4
102427
106935
114001
126675
156248
128655
96993.8
85030.2
78913.8
75229.3
74932.8
74804
97269.8
97978.4
99572.2
102320
106815
114750
128055
160910
121177
92949.1
81257.9
75714.2
75101.7
74792
74685
97312.3
98026.8
99624.1
102530
107491
114486
130900
161025
119522
87154.7
76751.7
75582.6
74892.2
74634.6
74553.6
97336.9
98058.8
99669.9
102601
107600
114513
130987
161127
118928
86512.5
76611.2
75418.5
74739.6
74513
74447.3
97338.7
98061.6
99674
102608
107603
114499
131036
161172
118965
86365.2
76505.2
75325.7
74652.8
74439
74381.1
93079.1
93523.2
94508.4
96308.2
99261.2
106050
113514
111092
31644
55828.7
60834.9
63911.8
65862.8
67090.1
67649.7
93034
93474.9
94454.3
96242.3
99198.7
105984
113458
110984
25895.5
55381.7
60708.2
63894.4
65889.7
67123.8
67685.1
92960.5
93387.4
94353.2
96142.4
99051.5
105840
113320
110843
25164.9
55203.9
60693.3
64004.2
65994.9
67221.1
67782
92862.4
93259
94197.8
95812
100331
105361
112993
110598
24809
55468.6
62392.1
64330.9
66215
67395.1
67947.4
92733.3
93087.2
93925.5
96939.8
100018
105711
113671
110174
25770.9
59498.7
64629.1
66283.3
66605.4
67675.2
68178.2
92586.6
92919.9
95067.4
96776.5
100462
105885
113303
109503
27804.2
61975.7
67058.1
67130.1
68407.4
68069.7
68456.5
92530.3
92851.7
95013.8
96657.2
100676
105722
112980
108731
40574.6
66975
69458
69279.8
68869.4
68437.5
68743.1
92497.3
92804.7
94959.3
97308.6
100622
105599
112685
107641
65227.1
73240.3
71853.2
71038.2
69348.3
68697.6
68941.7
92519
92836.5
94956
97285.1
100597
105538
112503
106859
78981.4
75887.9
72841.9
71543
69534.4
68801.4
69072.6
92569.1
92895.7
95003.9
96630.6
100601
105564
112546
107094
67554
72823.1
71827.8
70427.7
69476.9
68734.6
69059.5
92696.7
93045.5
93869.4
96767.9
100377
105676
112797
107948
45830.1
67325.7
69749
68220.2
67663.4
68544.5
68972.6
92811.2
93197.7
94112.3
95698.1
100056
104743
112108
108954
35734.1
61054.7
64496.4
65623
67287.2
68335.5
68830.3
92887.9
93306.9
94255.1
96012.4
98877.5
105332
112669
109715
27589.6
56674.8
61797.4
65067
66980.5
68151.5
68684.4
92934.9
93368.3
94332.4
96095.3
99013.9
105681
113001
110227
25165.7
55930.4
61538.5
64790.7
66794
68019.1
68572.3
92946.8
93383.8
94353.7
96129.8
99047.9
105773
113135
110448
26648.5
55911
61488.5
64700.2
66701.1
67942.9
68504.9
87838.4
87760.3
87576.7
87287
87265.5
91366.7
95139.2
108333
11941.9
34085
46772.9
53662.1
58176.8
60812.3
61995.4
87789.3
87707.1
87519.6
87224.5
87216.3
91297.1
95073.7
108116
3446.64
33821.8
46656.7
53668.9
58209.9
60847.1
62031
87711
87618.1
87421.7
87156.4
87123.4
91148
94923.2
107968
2962.77
33818
46781.8
53839.8
58343.8
60962.9
62135.9
87611.1
87487.7
87281.7
87155.3
89881.3
91030
94623.7
107737
2494.49
34206
47324.9
54376.4
58647.9
61189.4
62327.3
87493.3
87344.2
87186.7
89124.3
89823.3
92775.7
95565.2
107557
5206.78
34625
48620.3
55698.4
59178.9
61568.3
62612.6
87373.5
87288.1
88752.5
88981.9
90993.7
93462.8
95292.5
106953
3226.68
37086.8
50461
56589.1
60456.5
62044.3
62962.4
87332.5
87255.1
88612
88903.7
91565.5
93272.2
95028.9
106535
19578.4
42674
52912.6
58151.3
61060.7
62451.4
63284.7
87308.4
87223
88541.4
89861.8
91475.2
93138.3
94810.3
106095
36496.6
48521.3
55444.7
59510.8
61605.2
62756.9
63516.9
87329.9
87249.7
88540.8
89842.8
91447.6
93081
94698.2
105927
1088.33
50570.8
56559
60030.2
61823.1
62873.3
63654.5
87368.1
87275.4
88609.2
88909
91478.2
93125
94750.9
106157
2125.41
45177.4
55126.7
59364
61685.3
62805.2
63640.8
87480.9
87323.2
87141.3
88935.3
90928.7
93280.4
94950.7
106514
2287.59
39836.6
52669.9
57697.1
60355.7
62542.6
63518.7
87587.3
87454.2
87228.3
87060.5
89752.2
90905.1
94349.3
107156
2302.59
36318.7
49481.9
55732.4
59850
62260.6
63344.9
87668.3
87566.3
87350.3
87058.9
86986.5
90873.4
94428.8
107390
4693.26
35008
47971.8
55016.1
59464.7
62038
63186.7
87720.8
87629
87422.2
87100.8
87063.9
91027.8
94693.5
107666
2439.93
34513.6
47578.3
54689.1
59260.4
61896.5
63075.2
87737.1
87649.2
87446.7
87132.2
87086.5
91133.9
94834.2
107818
2667.07
34308.9
47549.9
54583.9
59166.1
61823.6
63011.8
82465.9
81810
80442.2
78244.2
77900.2
76757.1
79267.7
6519.37
25966.7
39122.9
47217.1
52830.4
56188
57752.1
82416.6
81757
80386
78188.6
77838.7
76690.3
79205.5
2299.73
25561.7
39057.3
47232
52847.7
56210.5
57775.8
82344.7
81682.3
80297
78099
77786.1
76605.6
79071.5
2298.22
25329.4
39182.8
47336.3
52941.6
56305.2
57859
82267.4
81596.6
80186.8
78165
77987.5
76457.9
78820.1
2296.32
25511
38441.4
47748.5
53167.9
56501.7
58021.7
82201.2
81525.8
80245.3
80177.1
78466.2
78460.9
79399.1
2308.63
23859.5
38500.3
47869.9
53565.5
56834.3
58279.9
82146.7
81592.2
81685.9
80370.1
79756.4
79353.6
79257.7
2282.12
25104
39203.6
48432.9
53987.1
57169.1
58611.7
82130.2
81588.1
81598.6
80403.4
80478.8
79300
79153.8
2273.84
27482.8
40687.7
49128.9
54507.2
57489.4
58902.9
82116.9
81578.3
81558.7
81251.9
80516.5
79224.4
79040.4
2370.17
29392.9
42324.7
50006.3
54888.3
57784.9
59143
82142.8
81596.8
81563.1
81258.7
80493.2
79170.2
78958.9
2285.68
34482.4
43577.3
50491.5
55138.7
57949.3
59317.3
82168.7
81606.6
81613.1
80396.3
80415.6
79170
78965.4
2342.47
32214.8
42770.6
50227.3
55192.3
57995
59376.9
82229.1
81545.3
80241.5
80111.7
79646.9
79201.1
79059
2276.43
26591.4
40956.5
49551.3
54811.1
57917.6
59305.5
82291.5
81611.6
80185.1
78125.1
77951.9
76447.9
78316.7
2267.64
25425.2
40148.4
49141.8
54478.2
57706.9
59185.5
82353.1
81680.7
80273.7
78046
77686.6
76412.6
78751.4
2296.06
26142.8
40400
48615.5
54211.8
57539.1
59074.5
82399.5
81728.6
80334.7
78106.7
77753.6
76533.9
78974.7
2294.83
26088.8
40073.4
48402.6
54070.5
57436.1
58998.1
82415.7
81747.9
80356.6
78130.3
77747
76604.5
79109.9
2293.36
26132.8
40037.7
48308.3
54001.4
57383
58953.1
77873.2
76686.4
74191.7
69800.9
67483.6
59762.1
55288.7
4174.31
2286.08
24860.2
36535.8
44943.5
50603.7
54042.3
55694.8
77817.6
76624.4
74116.6
69708.9
67390.9
59662.6
55213.5
2472.61
2299
24371.4
36527.7
44906.6
50576.5
54032.1
55688.1
77736.7
76538.1
73997
69534.9
67246
59480.3
55080.9
3049.52
2296.14
20797.6
36578.7
44858.2
50570.4
54052.5
55708.1
77654.2
76454.2
73824.1
69372.2
67066.3
59223.5
54929.9
2992.9
2299.21
21115.2
34199.9
44914.4
50607.7
54125.9
55771.8
77598.7
76377.6
73688.6
72260
66730.5
62037.8
56740.1
2695.38
2299.41
19196.9
33151.3
43555.9
50721.1
54303.4
55913.6
77565.4
76343.8
75573.4
72053.9
68615.6
63320.2
56809
2290.48
2293.13
19227.7
32798.5
43693.1
50079.7
54462.5
56129.3
77544.3
76311.5
75522.1
71879.2
69408.5
63291.1
56988.7
2287.9
2285.67
18934.4
33113.3
43334.3
50365.8
54665.6
56340.4
77539.2
76311.7
75488.9
73234.4
69342.7
63203.1
56834.2
5693.97
2253.27
17267.7
33357.8
43477.4
50650.1
54920.1
56570.3
77581.6
76344
75514.7
73256.4
69317.3
63111
56623.3
4839.26
2362.7
13089.5
33555.9
43823
50925.5
55158.9
56798.8
77634.6
76405.4
75605.6
71936.2
69380.3
63102.9
56566.3
2294.05
2280.04
18089.2
34086.5
44297.7
51160.3
55371.3
56988.6
77690.1
76462
73759.1
72237
68623.3
63181.4
56599.4
2279.84
2359.17
20262
34203.3
45040
52108.3
55524.3
57082.4
77751.3
76544.3
73897.6
69412.3
66936.5
59099.3
54805.3
2284.64
2295.36
20932.9
35757.8
46508.2
52102.8
55512.2
57118.8
77821.3
76612.6
74048
69542.6
67114
59295.9
54908.9
2285.82
2298.08
21870.9
37959.5
46372.7
52069
55485.6
57127.8
77875.8
76669.1
74131.7
69676.1
67294.8
59517.3
55099.9
2291.51
2297.87
25100.5
37718.1
46316.9
52031.7
55478.2
57126.6
77896.8
76694.6
74166.4
69725.6
67365.9
59672.6
55341.5
2756.58
2297.81
25612.3
37617.6
46274.4
52007.5
55463.9
57117.4
74883.6
73298.2
69925.6
63929.1
53528.4
43604.4
18428.7
2309.72
2298.49
26476.8
38045.6
46019.5
51294.3
54501.8
56038.3
74810
73212.3
69804.5
63765.6
53293
43362.4
18402.4
2266.46
2305.36
26264.5
37924.2
45888.6
51201.8
54440.4
55990.4
74697.2
73085
69626.5
63545
52944.9
42834.7
18188.1
2245.93
2301.6
21238.3
37583.8
45654
51057.8
54356.2
55930.7
74570.4
72956.1
69392
63268.5
57184.9
42325.4
18157.6
2270.95
2299.66
21033.3
33716.3
45345.8
50868.7
54265.4
55878.6
74469.7
72840.7
69230.5
65722.4
57005.8
46060.8
24588.4
2296.28
2297.79
17885.2
31711.8
42656.9
50711.8
54251.7
55873.3
74408
72743.1
70853.2
65592
59139.2
47933.8
25527.3
2276.68
2322.46
16940
30422.6
42351.2
49040.7
54274.9
55955
74367.4
72681.7
70840.6
65437.5
60031.1
47983.5
26236
2290.22
2316.11
15165.1
30003.8
41119.1
49108.9
54394.9
56093.8
74370.5
72688.3
70826.3
66821.5
59892
47777
25514
2524.5
2294.19
14397.8
29818.9
40738.1
49328.5
54635.6
56324.3
74441
72756.4
70874.5
66852.2
59862.5
47603.6
25182.3
2315.58
2301.81
12399.7
30008.1
41105.1
49704.7
54969
56613.9
74547.3
72884.2
70986.2
65567.9
59995.8
47611.4
25179.6
2271.55
2248.06
15882.8
31093.2
42315.6
50183.7
55356.2
56957.2
74653.8
73028.9
69427.8
65870.3
59173.3
47719.2
25179.8
2271.83
4736.53
18681.3
32198.3
44272.3
52422.9
55709.7
57233.8
74771
73158.4
69591.3
63441.4
57207.5
42309.4
19699.2
2277.28
2292.28
20352.4
35571.2
47410
52719.7
55927.2
57453
74886.8
73266.8
69787.6
63648.3
52928.4
42569.4
18089.1
2249.36
2303.67
22367.5
39466.4
47596.7
52894.3
56089.4
57609.3
74969.4
73355.4
69906.6
63782.3
53182.2
42988.4
18181.1
2233.98
2303.01
27257.2
39492.1
47656.5
52974.2
56176.3
57697.2
75004.6
73396.8
69969.1
63863.8
53318.6
43284
18375.9
2259.8
2311.17
27157.2
39372.8
47667
52997.7
56205.9
57728.5
74130
72512.1
69054.5
63066
52634.9
41214.1
7074.67
2300.29
5027.38
32677.7
43177.1
50144.3
54606.6
57269.5
58538.6
74031.5
72393.5
68873.3
62758.5
52265.7
40292.7
5979.48
2257.67
10969.6
32996.4
43110.8
49944.1
54446.4
57157.6
58450.5
73879.2
72215.3
68609.4
62390.4
52293.7
38716.6
7506.64
2248.41
2931.18
25250
42398.1
49485.1
54151.6
56975.5
58314.9
73705
72028.1
68331.9
62049
54022.8
37572.7
8750.64
2276.01
2307.43
24333.5
37139.6
48857.4
53746.1
56743.4
58158.9
73561.4
71876.2
68182.5
63307
53517.7
39799.9
17897.7
2293.73
2312.74
19419
33903.5
45087.1
53402.6
56581.8
58046.4
73470.6
71780.1
68977.1
63051.7
54813.3
40987.8
19026.2
2290.89
2315.46
17535.6
31663.4
44406.4
50933
56529.4
58046.5
73418.6
71705.6
68923.2
62889.3
55348.9
40992.6
20832.9
2295.31
2265.26
15397.6
30841.2
42460.8
50836.6
56613.3
58153.8
73439
71725.9
68935.7
63846.1
55183.6
40639.3
18491.5
2301.94
2354.89
17216.1
30609.2
41782.5
51070.3
56886.9
58412.2
73541.6
71842
69033.7
63920.9
55204
40396.6
17517.6
2301.07
2278.24
14867.1
31187.4
42389.3
51615.4
57330.8
58784.8
73702.7
72034.4
69190.1
63223.3
55458.9
40538.2
17514.1
2286.58
2290.52
18340.6
33054.7
44399.8
52372.3
57865.3
59226.3
73867.7
72212.4
68586.3
63607.7
55110.4
40858.7
17635.2
2293.01
4468.37
21205
34903.1
47398.5
55592.5
58360.6
59658.7
74040.9
72386
68728.2
62476.1
54112.8
37896.6
17221.4
2283.66
2298.29
23760.1
39861.3
51705.1
56102.6
58757.9
60020
74204.7
72542.4
68930.3
62654.4
52354.9
37989.6
7539.7
2268.39
2329.37
26949
45194.8
52075.6
56446.5
59059
60290.2
74320.8
72667
69097.3
62847.2
52148.3
39766.1
5502.68
2234.67
11460.6
34871
45393.7
52254
56636.2
59233.1
60454
74374.8
72727.5
69189.3
62977.7
52278.3
40177.9
5141.86
2260.73
2403.4
33217.9
44998.1
52241.3
56685.6
59300.1
60521.8
75817.5
74643.4
72184.2
68306.2
60170.8
51304.6
22346.4
2328.77
35290.8
49328.2
53123
57512.2
60280.2
61964.6
62793
75693.8
74484.5
71925.6
67781.6
59095.4
50227.6
11870.3
2322.88
31760.7
47715.2
52606.3
57128.1
60039.3
61808.4
62673.8
75504.1
74251.6
71571.7
67065
60420.6
46604.8
17811.2
2530.2
15764.2
36982
51517
56360.7
59598.9
61551.4
62483.7
75285.6
73978.7
71122.8
66364.6
58777.9
44228.7
16469.4
2299.13
2347.89
32753.7
44928.5
55402.1
58986
61219.2
62257.7
75102.5
73749.5
70828.7
65942.3
57347.9
43470.7
20679.8
2291.7
2334
24116.2
40219.8
50863.7
58560.6
60967.5
62090.1
74984
73630.9
70611.5
65277.9
57003.9
42930.2
19428.7
2290.53
2408.88
20167.7
36650.8
49837.1
55514.3
60912.6
62060.4
74920.7
73537.9
70403.3
64968.8
56810.3
42342.6
19388.2
2253.32
2287.93
17909.9
35078.6
47319.9
55362.9
61003.9
62167.3
74960.7
73578.7
70412.5
65258.5
56597
42062.4
19931.6
2121.16
2247.98
9588.91
34313.2
46430.8
55677.9
61332.5
62463.4
75100.4
73750.5
70585.9
65438.5
56816.2
42159.4
18784.3
2312.34
2374.37
17173.1
36243.8
47496.7
56411.4
61868.3
62905.3
75321.8
74024.7
70879.2
65719.4
57458.8
43014.4
19239.7
2350.24
2306.4
25291.2
39898.4
50414.8
57411
62500.1
63428.7
75549.9
74268.8
71518.8
66375.1
58153.1
44155.2
19968.2
2316.19
6996.08
29852.2
42979.3
54296.6
61320
63091.1
63952.5
75780.5
74530.9
71799.3
67247.5
58968.7
44526.9
19954.5
2305.82
5244.77
34045.6
49416.7
59344.1
61943.2
63603.2
64400.9
75992.3
74764.6
72125.1
67623.2
60813.2
45465.3
14972.2
2350.88
17243.7
39667
55767.5
59784.4
62404.8
63988.7
64744.3
76143.1
74929.6
72337.4
68013.5
58836.3
48955
2349.98
2322.38
32660.6
50930.4
55842.8
60113.6
62700.9
64230.7
64963.6
76215.8
75012.4
72458.7
68229.7
59126.2
49652.4
3272.08
2326.86
31934.2
51441.6
55678.8
60148.3
62783.8
64323.9
65055.6
79438.7
79041.9
78310.1
78449.1
78031.9
86161.9
126938
121843
89363.8
72961.5
67567.9
67555
67640.6
67983.2
68234.3
79298.6
78847.5
77994.7
77808.4
76679.7
84935.6
130204
100165
81668.9
70341.2
66431
66916.1
67320.1
67799.8
68100.2
79083.7
78558.7
77563.2
76195.4
75644.6
70049.3
81763.3
68150.1
55902.1
58657.1
64554.9
65754.5
66774.4
67504.1
67888
78829.2
78205.1
76904.4
75050.5
69915.4
63491.5
53321.1
25370.5
22370.9
51496.1
57772.7
64575.2
66085.1
67140.2
67637
78615.4
77904.2
76451.3
72619.4
67865.8
57965.8
35960.6
2264.32
2316.05
36620.9
52013.1
59889.1
65632.6
66868
67465.7
78477.9
77737.9
75048
71749.3
65632.7
54554.8
30604.6
2263.75
2241.88
29721
47235.5
58811.5
62492
66837.2
67455.4
78406.1
77632.9
74742.8
71345.2
64475.5
52690.3
28631
2310.72
2313.27
26190.6
44921.3
55978
62342.4
66956.9
67579
78462
77694.3
74753.5
70817.5
64098.7
51801
27191.8
1953.9
2283.14
19402.7
44475
55068.6
62811.5
67321.2
67900.1
78633.7
77910.2
74993.8
71131.7
64612.7
52658.9
29317.2
2333.15
2254.42
28630.7
47735.1
56547.7
63668.5
67876.8
68371.4
78907.2
78251.8
75415
72547.2
65952.6
55796.2
33513.1
2277.94
16382.3
42500.9
53064.9
60117.4
64769
68530.6
68925
79192
78596.1
77419
73386.8
68047.9
59136.9
40226
2277.32
30307.8
51302.8
57438.9
64456.2
68691.7
69198.7
69476.3
79480
78954.6
77883.6
76458.6
70927.1
65143
41500.5
8698.16
27922.8
57395.3
64653
69164.3
69450
69770
69963.1
79743.5
79278.6
78409.7
77224.2
76939.6
67441.8
57420.8
46618.1
52297
63605.6
69917.3
69854.9
69975.3
70188.3
70341.4
79929.7
79505
78703.9
78493.4
76863.5
86011.8
121512
95835.5
86157.6
75575.6
70662.1
70539
70379.4
70490.9
70601
80018.2
79613.8
78858.6
78845.1
77246.9
87609.7
121288
114548
96211.4
78296.4
71281.5
70884.3
70554.1
70606
70703.5
83876.4
84228.7
84894.7
87872.9
92488.5
97315.2
121654
122079
103769
88703.1
80782.8
77330.5
75170.1
74365.6
74073.3
83755.3
84059.6
84684.2
87591.6
92218.3
97578.4
128130
130766
103432
87511.1
79904.3
76769.1
74884.4
74193.6
73949.1
83559.3
83749.1
84351.4
85818.8
89958.8
92985
111126
132481
103308
84440
77927
75583.4
74394.2
73912.7
73756.6
83315.8
83398.8
83680.7
84641.6
84399.5
89653.1
105225
132440
96208.8
79734.4
74063.2
74404.9
73787.3
73611.4
73542.6
83113.3
83108.8
83175.4
81579.7
82122.3
81889.5
84202.6
105807
65114.3
67729
69243
71019.2
73339.6
73380.7
73398.4
82990.1
82859
81248
80729.7
78869.1
76676.3
72968.5
22025.5
29196.5
58461.5
64712.4
70152
70905
73306.9
73415.9
82927.5
82756
80983.1
80274.7
76856
73772.1
63972.2
2324.31
2274.1
49780.1
62434.4
67861
70887.8
73437.2
73553.1
82992
82826
81000.6
79062.1
76406.5
71346.3
55383.2
10379.6
2371.88
49983.9
62665.6
67110.4
71346.9
73800
73869.8
83170.9
83043.1
81253.6
79412.9
77054.1
72408.6
41532.5
2244.34
28589.1
58954.1
66047.6
68665.1
72135.7
74318.4
74312.1
83457.5
83405.1
81702.8
81503.6
78705.1
78309
76734.9
86381.6
90570.5
73833.3
71276.1
71909
73165.6
74929.3
74832.7
83763.3
83881.7
84207.5
82618.3
81890.7
83218.8
93720.3
147233
120385
84415.9
75828.6
75356.2
76223.4
75619.3
75372.7
84080.7
84287.8
84869.6
86420.6
86348.3
93095.7
105926
176084
115544
89275
81006.8
78824.4
77087.2
76213.2
75864.1
84368
84656.8
85502.6
87457.3
92636.1
96926.5
124539
159574
120186
93215.9
83644.7
79852.5
77663.3
76647.9
76241.5
84565.7
84944.5
85745.5
88961.8
93583
101210
133519
138073
112812
93297.7
84513.5
80644.6
78070.2
76954.5
76501.3
84649.4
85048.8
85823.8
89097.5
93151.5
100293
125953
120866
114582
93571.1
85103.2
81079.9
78271.3
77095.1
76617.1
87860.6
88508.5
89398.9
91756.6
95615
94212.4
96637.7
99669.8
96264.1
91337.2
87047.5
83749
81204.4
80013.9
79442.2
87814.4
88455.1
89444.1
92095
96453.7
95926.8
100718
104326
97493.1
92027.3
87165.9
83624.1
81100.5
79917.9
79365.9
87724.9
88269
89499.8
91685.4
95599.1
98133.2
104071
115045
100383
92805.9
86609.1
83106.7
80882.2
79745.4
79248.1
87586.9
88086
89218.6
91696.1
93190.1
100137
111788
125750
109519
93551.7
85880.5
82562.2
80543.9
79563.7
79119.9
87456.8
87900.3
88935.3
89441.8
92969.3
98798.1
113798
149799
118143
93965.7
84437.7
80950.5
80190.9
79403.7
79025.2
87364
87655.6
87442.6
88856.5
90826.2
96796.3
114798
164691
122039
92051.8
82842.8
80450.8
78907
79320.5
79057.6
87334.1
87595.1
87337.8
88565.1
89630.6
95798.6
113455
176333
122355
89848.9
81964.9
79587.7
79004.2
79450.3
79200.2
87405.2
87667.4
87369
87697.6
89401.8
95073.1
111454
168591
119518
89528.3
82353.7
79663.3
79364.3
79768.2
79492.2
87558
87844.5
87577.7
87943.9
89840.8
96246.5
118359
154180
105003
91197.3
84206.4
80783.5
80010.2
80211.4
79875.4
87806.8
88146.3
87927.9
89420.4
90767.1
98361
125699
46273.1
110943
96581.5
86955.5
82593.1
80827.7
80739.5
80327.5
88105.2
88643.3
89893.4
90300.6
92594.3
99449.1
115604
135975
127073
101128
89289.2
84504.4
82787.3
81393.2
80820.4
88393.8
89008.3
90413.9
93312.5
95232.7
103661
117101
142592
123521
101778
90857.2
86276.4
83456.3
81922.9
81259.6
88624.1
89290
90815.1
93590.8
98198.9
103042
111396
125764
109856
99964.4
91282.7
86905.2
83857.4
82289
81576.7
88758.5
89518.4
90776.6
94035.6
98835.5
99989.1
108121
114950
106037
96986.7
91554.2
87259.7
84079
82531.1
81788
88793.7
89555.2
90688.5
93795.2
98025.5
98282
106648
111286
106203
95662.3
91586.5
87407.7
84160.3
82637.3
81878.8
90761.8
91307.4
91847.9
92711.3
94848.8
93708.8
93090.5
95967
93081.2
91079.1
89237
87166.7
85331
84363.1
83796.4
90805.9
91380.4
92059.2
93301.3
95825.5
95180
95110.5
95811.1
94010.9
92252.3
89765.4
87376.4
85413.7
84367.4
83789.8
90871
91396.4
92432
93956.6
96357.8
97803.2
100327
103941
98866.3
94078.7
90380.9
87571.3