/*--------------------------------*- C++ -*----------------------------------*\
| =========                 |                                                 |
| \\      /  F ield         | OpenFOAM: The Open Source CFD Toolbox           |
|  \\    /   O peration     | Version:  v2012                                 |
|   \\  /    A nd           | Website:  www.openfoam.com                      |
|    \\/     M anipulation  |                                                 |
\*---------------------------------------------------------------------------*/
FoamFile
{
    version     2.0;
    format      ascii;
    class       volScalarField;
    location    "0.033";
    object      p_rgh;
}
// * * * * * * * * * * * * * * * * * * * * * * * * * * * * * * * * * * * * * //

dimensions      [1 -1 -2 0 0 0 0];


internalField   nonuniform List<scalar> 
449343
(
105741
105889
106139
106397
106532
106351
105630
104300
102411
100169
97864.5
95773.1
94087.2
92918.3
92322.6
105749
105898
106150
106410
106547
106369
105651
104325
102440
100203
97901
95809.6
94122.2
92951.5
92354.7
105766
105916
106171
106435
106576
106402
105690
104372
102497
100268
97971.7
95880.1
94189.4
93015.2
92416.2
105788
105941
106201
106470
106616
106448
105746
104438
102577
100360
98071.2
95979.4
94283.4
93103.5
92501.1
105814
105970
106235
106511
106663
106503
105811
104518
102673
100470
98190.2
96097.5
94394.6
93207.3
92600.7
105841
106000
106270
106553
106712
106561
105881
104603
102774
100586
98314.5
96220.5
94509.7
93314.5
92703.3
105865
106027
106302
106591
106755
106615
105946
104679
102867
100692
98423.9
96330.4
94612.9
93411.1
92796.1
105884
106047
106325
106619
106787
106657
105995
104739
102933
100769
98504
96409.9
94689.3
93484.5
92867.9
105896
106059
106338
106634
106805
106680
106025
104773
102971
100806
98541.2
96448.5
94730.1
93527
92911.3
105900
106063
106340
106635
106808
106685
106030
104777
102971
100800
98535.7
96445.3
94734.2
93537.5
92925.6
105898
106058
106333
106626
106796
106671
106013
104755
102942
100762
98496.5
96410.2
94708.3
93519.5
92911
105893
106051
106322
106611
106778
106651
105987
104720
102896
100708
98438.8
96357.6
94665.8
93486.7
92884
105886
106043
106310
106594
106758
106628
105956
104681
102847
100652
98379.2
96302.7
94619.9
93449.2
92851.3
105880
106036
106301
106581
106741
106607
105930
104648
102806
100605
98331.2
96258.6
94582.4
93417.7
92823.2
105877
106032
106295
106573
106731
106595
105915
104630
102784
100579
98304.9
96234.4
94561.6
93399.9
92807.2
105570
105765
106114
106524
106842
106883
106296
104904
102761
100179
97576.6
95286.4
93490.6
92268.2
91651.5
105578
105774
106126
106538
106859
106902
106318
104931
102794
100218
97618
95326.7
93528.2
92303.5
91685.4
105594
105792
106148
106566
106892
106938
106359
104981
102857
100295
97700.2
95406.1
93601.5
92371.5
91750.6
105616
105818
106179
106604
106936
106986
106414
105046
102944
100403
97818.8
95520.2
93705.4
92466.8
91841.4
105643
105848
106217
106650
106990
107041
106485
105137
103047
100536
97966.3
95659.9
93830.4
92580
91948.5
105670
105879
106256
106699
107047
107108
106561
105235
103174
100681
98123.3
95808.8
93962
92698
92059.6
105695
105907
106290
106742
107093
107174
106637
105326
103290
100815
98270.8
95944.2
94080.3
92805
92160.5
105713
105928
106314
106772
107129
107219
106691
105349
103366
100904
98367.1
96036.9
94165.7
92885.4
92237.9
105725
105940
106327
106786
107147
107244
106725
105435
103415
100944
98402.8
96075.7
94208.4
92929.8
92283.3
105729
105942
106326
106783
107147
107240
106723
105433
103403
100923
98372.2
96058.5
94206.2
92937.5
92295.5
105726
105936
106315
106765
107125
107216
106699
105399
103351
100865
98306.9
96002.1
94168.2
92912
92277.8
105720
105928
106301
106745
107100
107195
106666
105349
103293
100784
98218.7
95927.3
94112.7
92871.8
92244.6
105714
105918
106286
106724
107074
107167
106632
105304
103229
100704
98134.6
95854.2
94055.4
92827
92206.3
105708
105911
106275
106708
107052
107142
106600
105263
103175
100640
98070
95797.9
94009.9
92790.1
92173.9
105705
105907
106269
106699
107040
107128
106583
105239
103146
100606
98036
95767.9
93985.1
92769.6
92155.7
105135
105438
106015
106785
107571
108180
108001
106447
103628
100156
96819.5
94078.6
92044.2
90708.4
90048.3
105143
105447
106027
106801
107591
108203
108025
106479
103669
100206
96871.6
94127.2
92087.9
90748.3
90086.4
105158
105465
106051
106834
107632
108248
108067
106541
103747
100310
96981.6
94226.1
92174.4
90826.4
90160.1
105179
105491
106087
106882
107691
108303
108112
106619
103838
100460
97151.2
94375.5
92300.5
90937.5
90264
105205
105523
106131
106943
107762
108358
108150
106680
103949
100671
97370.4
94565
92457.3
91072.2
90388.4
105232
105557
106178
107005
107842
108430
108231
106813
104141
100898
97628.6
94777
92626.2
91215.2
90519
105256
105587
106218
107065
107894
108523
108333
106946
104322
101086
97911
94975.1
92783.2
91346.2
90638.4
105275
105609
106244
107103
107946
108591
108438
106948
104440
101208
98040.2
95097.1
92890.2
91443
90729.3
105286
105619
106254
107111
107957
108598
108442
107095
104500
101255
98078.9
95140.2
92938
91492.3
90780.1
105290
105619
106249
107091
107947
108575
108428
107071
104458
101209
97958.3
95090.8
92918.8
91493.1
90789.5
105287
105610
106228
107060
107904
108547
108394
107002
104347
101092
97798.9
94981.2
92854.6
91454.4
90762.4
105281
105599
106206
107024
107861
108521
108391
106976
104266
100924
97632.5
94853.9
92768.4
91395.7
90716.5
105275
105589
106187
106992
107815
108478
108353
106896
104171
100783
97482.1
94736.4
92685
91334.1
90665.6
105270
105581
106172
106968
107781
108439
108312
106831
104086
100675
97376.6
94652
92621.6
91285.1
90623.7
105268
105577
106165
106956
107764
108420
108288
106798
104041
100622
97324.9
94609
92588
91258.3
90600.5
104308
104769
105688
107041
108692
110350
111346
109486
105176
99831.8
95252.3
91887.9
89573.2
88124.2
87429.3
104314
104777
105700
107059
108717
110377
111366
109521
105223
99894.3
95317.3
91945.5
89623.8
88170.2
87472.9
104326
104793
105725
107100
108775
110441
111411
109608
105339
100057
95468
92068.2
89726.5
88261.4
87558.3
104344
104817
105765
107164
108859
110538
111332
109733
105411
100339
95731.3
92264.2
89881.3
88393.8
87680.3
104366
104848
105817
107246
108976
110589
110653
109568
106329
100765
96097.5
92536.7
90081.6
88558.2
87829
104390
104883
105881
107366
109124
109868
110657
109708
106634
102215
96583.2
92858.8
90309
88735.6
87987.5
104412
104915
105933
107451
108519
109988
110763
109879
106877
102539
98060
93149.9
90522.7
88902.4
88134
104430
104938
105965
107494
108562
110082
110902
109946
107072
102770
98262.3
93320.3
90671.9
89027.5
88244.9
104441
104946
105967
107496
108580
110099
110922
110094
107170
102864
98370
93378.5
90724.4
89085.6
88307.1
104446
104944
105951
107453
109237
110042
110899
110082
107123
102812
97104.5
93294
90689.7
89080.8
88315.5
104445
104932
105910
107361
109132
110793
110935
110008
106972
101371
96700
93085
90580.5
89022.5
88275.5
104443
104922
105880
107304
109034
110757
111650
110176
105998
100973
96364.1
92866.1
90450.1
88938.5
88212.3
104441
104912
105855
107251
108958
110656
111710
110014
105846
100638
96080.7
92681.4
90329.3
88853.3
88143.8
104438
104906
105839
107219
108906
110591
111651
109901
105693
100438
95907.9
92556.7
90241
88787.3
88088.6
104437
104903
105831
107204
108883
110563
111627
109853
105626
100356
95830.4
92495.9
90195.4
88751.9
88058.5
102895
103526
104838
106924
109848
113508
117443
114835
107529
98445.8
92162.3
88301.1
85871.5
84438.6
83780.1
102896
103530
104846
106941
109874
113541
117455
114858
107578
98517.7
92233.5
88362
85926.3
84489.5
83828.7
102901
103539
104866
106984
109955
113641
117523
114939
107763
98727
92414.1
88496.7
86040.2
84592.2
83925.1
102907
103553
104901
107078
110159
113896
115277
115145
109485
99411.2
92828.1
88740.3
86217.5
84744.3
84065.3
102917
103572
104954
107186
110328
112457
115378
115280
109895
102018
93386.1
89080.3
86461.4
84937.9
84239.3
102930
103604
105037
107439
109529
112743
115571
115434
110248
102739
95960.5
89569
86736.5
85157
84428.5
102942
103619
105066
106881
109635
112950
114784
115010
110928
104148
96654.1
91693.7
86982.4
85348.7
84603.7
102959
103643
105148
106899
109720
113067
114956
115266
111356
104631
97133
92039.6
87277.5
85501.5
84745.7
102969
103647
105092
106902
109729
113092
115003
115408
111522
104836
97273
92161.1
87257.7
85583.8
84819.3
102985
103663
105104
107517
109640
112973
115000
115357
111414
103803
96916.2
90182.9
87249.9
85595.2
84833.5
102994
103651
105039
107288
110475
112741
115771
115861
110813
103290
94294.1
89840.1
87106
85514.2
84784.3
103004
103654
105010
107202
110311
114099
115625
115722
110452
100357
93702.2
89521.9
86926.5
85405.6
84703
103011
103653
104986
107116
110112
113846
117779
115451
108364
99462.5
93181.5
89247.7
86765.7
85295.4
84615.8
103017
103653
104975
107082
110036
113732
117702
115270
108097
99159.3
92935.9
89085.2
86652.4
85211.5
84546.8
103020
103654
104971
107069
110011
113695
117681
115193
108005
99036.4
92830.3
89007.9
86595.2
85167.3
84509.4
100647
101401
103027
105812
110246
117231
122929
128399
114829
93676.1
86340
82762.8
80678.8
79573.8
79103.5
100641
101396
103025
105818
110269
117256
122937
128396
114811
93696.3
86389.7
82811.5
80731.2
79626.7
79155.5
100631
101388
103024
105827
110313
117336
122966
128425
114836
93778.7
86492
82907
80841.9
79734.9
79259.6
100617
101381
103036
105903
110707
115214
123126
128625
115033
98555.7
86901.2
83066.3
81016.5
79899.8
79413.6
100599
101362
103026
105989
109532
115546
123533
126405
116720
99756.9
90624
83397.6
81231.1
80102.9
79608
100590
101349
103098
105631
109702
114719
121901
125671
117363
102805
91523.5
86298.1
81538.7
80333.5
79823.7
100578
101324
103104
105697
109890
114821
121162
126076
118665
104735
93965.7
86920.6
81805.2
80539.7
80024
100581
101314
103160
105786
109292
114406
121361
126550
119614
105761
94700.7
87413.7
84061.2
80687.7
80186.7
100604
101350
103132
105768
109303
114913
121446
126816
120146
106300
95052.5
87568.7
82213
80843.6
80293.4
100643
101401
103150
105676
109894
114907
121349
126680
119870
106106
94872.5
87463.5
82232.8
80886.4
80323.3
100673
101435
103097
106065
109629
115810
122029
127249
118623
104166
92444.3
84475.9
82071
80820.3
80271.6
100711
101477
103133
105996
110800
115416
123486
129286
116304
100273
88098.4
84082.8
81900.6
80702.2
80177.7
100739
101495
103130
105932
110417
117449
123215
128880
115717
94736.3
87445
83825
81714.5
80570.1
80075.2
100760
101514
103143
105935
110385
117375
123114
128715
115371
94445.9
87220.7
83666.2
81586.1
80472.8
79994.9
100771
101524
103149
105932
110365
117350
123103
128666
115268
94321.8
87104.9
83582.2
81521.2
80421.8
79951.7
97348.6
98075.7
99697.2
102645
107663
114574
131169
161312
119030
85969.3
75780.3
74520.9
73815.6
73594.1
73535.8
97332.5
98058.4
99678
102624
107648
114571
131145
161263
118663
85814.2
75763.7
74538.2
73860.7
73646.2
73589.2
97299.9
98019.7
99630
102547
107538
114552
131056
161192
118465
85763.6
75715.5
74581.9
73958.7
73752.4
73697.5
97252.8
97965.6
99563.2
102339
106956
114921
131073
161069
118302
86046.9
79429.4
74518.1
74110.1
73915.9
73860.9
97185.1
97870
99371.7
102436
106976
114056
128157
160990
119692
90595
79766
77262.6
74241.8
74122.8
74070.3
97120.1
97729.1
99880
102490
106744
114032
126776
156137
125465
93864.7
83064.4
77828.3
76477
74355.9
74312.2
97086.8
97685.3
99881.9
102489
106773
113634
126716
156348
127677
96197.9
85710.2
80271.1
76872.1
74647.4
74555.4
97067.7
97664.5
99947.3
102519
106777
113615
126713
156802
131488
99087.4
87180.2
81056.3
77355.8
74876.9
74724.8
97112.5
97708.8
99916.8
102546
106801
113612
126705
157059
133885
100565
87899
81435
77527.7
75010.8
74882.5
97173.5
97778.1
99935.3
102488
106799
113623
126685
156727
132095
99455.4
87458.6
81258.3
77511
75018.5
74911.2
97259.2
97939.4
99424.3
102481
106989
114053
126725
156299
128706
97044
85081.7
78967.7
75288.2
74991.7
74862.8
97348.3
98056.9
99650.6
102398
106889
114824
128126
160981
121248
93020.2
81331.5
75792.6
75180.2
74870.4
74763.5
97410.4
98124.9
99722.2
102628
107589
114579
130994
161116
119612
87247.9
76849.8
75680.7
74990.3
74732.7
74651.7
97454.6
98176.6
99787.7
102718
107718
114626
131099
161238
119038
86625.3
76728.9
75536.3
74857.3
74630.7
74565.1
97476
98199
99811.4
102745
107741
114631
131168
161302
119095
86497.6
76642.5
75463
74790.1
74576.3
74518.4
92941.7
93385.9
94371.1
96170.9
99123.8
105907
113369
110946
31498.1
55686.4
60697.5
63774.5
65725.4
66952.7
67512.3
92916.3
93357.2
94336.6
96124.6
99081
105861
113333
110857
25769.2
55259
60590.4
63776.6
65771.9
67006.1
67567.4
92862.4
93289.3
94255.1
96044.3
98953.4
105737
113215
110736
25058.3
55100.9
60595.2
63906.1
65896.8
67123
67683.9
92783.9
93180.6
94119.3
95733.6
100248
105277
112907
110511
24722
55385.2
62308.7
64252.4
66136.5
67316.6
67868.9
92674.4
93028.3
93866.7
96876.1
99954.6
105645
113604
110106
25703.5
59431.2
64562.9
66219.6
66546.5
67616.4
68119.4
92547.3
92880.7
95023.2
96732.3
100415
105837
113255
109455
27756.4
61927.9
67010.3
67085.9
68363.2
68030.4
68417.3
92510.7
92832.1
94989.3
96632.7
100647
105694
112952
108702
40546.4
66946.8
69429.8
69252.8
68844.9
68417.9
68723.5
92497.3
92804.7
94954.4
97301.2
100614
105591
112676
107632
65218.6
73231.7
71844.6
71029.7
69343.4
68697.6
68941.7
92538.6
92856.1
94970.7
97297.3
100608
105549
112514
106870
78992.4
75898.9
72853
71554.1
69549.2
68821
69092.2
92608.3
92934.9
95038.2
96665
100632
105595
112576
107125
67584.7
72853.7
71858.4
70459.6
69511.2
68773.9
69098.7
92755.6
93104.4
93928.3
96821.9
100429
105727
112848
107998
45880.4
67376
69799.2
68274.1
67722.3
68603.4
69031.5
92889.7
93276.2
94190.8
95776.6
100129
104817
112179
109024
35804
61125.8
64570
65701.5
67365.6
68414
68908.8
92986
93405
94353.2
96110.5
98975.6
105425
112760
109804
27679.1
56768
61895.5
65165.1
67078.6
68249.6
68782.5
93052.6
93486
94450.1
96213
99131.6
105793
113112
110336
25274.8
56043.2
61656.2
64908.5
66911.8
68136.8
68690
93084.1
93521.1
94491.1
96267.1
99185.3
105906
113265
110576
26777.2
56043.4
61625.8
64837.5
66838.5
68080.3
68642.2
87701.1
87622.9
87439.3
87149.7
87128.1
91224.5
94994.5
108187
11796
33942.7
46635.5
53524.8
58039.5
60674.9
61858.1
87671.6
87589.4
87401.9
87106.8
87098.6
91174.4
94948.6
107989
3320.45
33699.2
46539
53551.2
58092.2
60729.4
61913.3
87612.9
87520
87323.6
87058.3
87025.3
91044.9
94817.7
107861
2856.19
33715
46683.7
53741.7
58245.7
60864.8
62037.8
87532.7
87409.2
87203.2
87076.8
89797.9
90946.6
94537.9
107649
2408
34122.6
47241.6
54298
58569.5
61111
62248.8
87434.5
87285.3
87127.8
89060.5
89759.5
92709.5
95497.7
107489
5139.39
34557.6
48554
55634.7
59120.1
61509.4
62553.8
87334.2
87248.9
88708.3
88937.7
90947.1
93414.9
95244.6
106905
3178.9
37039
50413.2
56545
60412.4
62005.1
62923.1
87312.8
87235.5
88587.5
88879.1
91537.3
93244
95000.7
106506
19550.2
42645.8
52884.4
58124.3
61036.2
62431.8
63265
87308.4
87223
88536.5
89854.5
91466.6
93129.7
94801.7
106086
36488.1
48512.7
55436.2
59502.2
61600.3
62756.9
63516.9
87349.5
87269.3
88555.5
89855
91458.6
93092
94709.3
105937
1099.36
50581.8
56570
60041.3
61837.8
62892.9
63674.1
87407.3
87314.6
88643.5
88943.3
91508.8
93155.7
94781.5
106187
2155.41
45208.1
55157.4
59395.9
61719.7
62844.4
63680
87539.7
87382.1
87200.2
88989.2
90980.2
93330.7
95001
106563
2337.48
39886.9
52720.2
57751
60414.5
62601.5
63577.5
87665.8
87532.7
87306.8
87139
89825.8
90978.7
94420.4
107226
2344.47
36389.9
49555.5
55810.9
59928.5
62339.1
63423.4
87766.4
87664.4
87448.4
87157
87084.6
90966.6
94519.5
107478
4782.75
35101.2
48069.9
55114.2
59562.8
62136.1
63284.8
87838.5
87746.7
87539.9
87218.5
87181.6
91140.6
94803.9
107774
2547.21
34626.5
47696
54806.8
59378.1
62014.3
63192.9
87874.4
87786.5
87584
87269.5
87223.8
91266.3
94964.2
107946
2795.4
34441.3
47687.2
54721.2
59303.4
61961
63149.1
82328.6
81672.7
80304.9
78106.8
77757.9
76614.8
79123
6374.67
25824.4
38985.6
47079.8
52693.1
56050.7
57614.8
82298.9
81639.3
80268.3
78070.9
77716.1
76567.7
79080.4
2195.59
25439.1
38939.6
47114.3
52730
56092.8
57658.1
82246.6
81584.2
80198.9
78000.9
77683.1
76502.6
78966
2217.76
25226.4
39084.7
47238.2
52843.5
56207.1
57760.9
82188.9
81518.1
80108.3
78086.6
77904.1
76374.5
78734.3
2230.38
25427.6
38358
47670
53089.4
56423.2
57943.2
82142.3
81467
80186.4
80113.3
78402.5
78394.7
79331.7
2251.12
23792.1
38434
47806.1
53506.6
56775.5
58221
82107.5
81553
81641.8
80326
79709.8
79305.8
79209.9
2237.71
25056.2
39155.7
48388.8
53943
57129.9
58572.5
82110.6
81568.5
81574
80378.9
80450.6
79271.8
79125.6
2247.03
27454.6
40659.5
49101.9
54482.7
57469.7
58883.3
82116.9
81578.3
81553.8
81244.5
80507.9
79215.8
79031.8
2367.86
29384.3
42316.1
49997.7
54883.4
57784.9
59143
82162.4
81616.4
81577.8
81270.9
80504.2
79181.3
78970
2290.14
34493.5
43588.4
50502.5
55153.4
57968.9
59336.9
82207.9
81645.8
81647.5
80430.6
80446.3
79200.7
78996.1
2343.13
32245.4
42801.3
50259.2
55226.7
58034.3
59416.1
82287.9
81604.2
80300.3
80165.7
79698.4
79251.4
79109.3
2316.26
26641.6
41006.8
49605.3
54869.9
57976.4
59364.3
82369.9
81690.1
80263.5
78203.6
78025.5
76521.5
78387.8
2285.82
25496.3
40222
49220.3
54556.6
57785.4
59264
82451.2
81778.8
80371.8
78144.1
77779.8
76505.8
78842.1
2373.21
26236
40498.1
48713.6
54309.9
57637.2
59172.6
82517.2
81846.3
80452.4
78224.5
77866.4
76646.7
79085
2383.43
26201.6
40191.1
48520.3
54188.2
57553.8
59115.8
82553.1
81885.3
80494
78267.6
77879.5
76737
79239.9
2396.13
26265.2
40175.1
48445.6
54138.8
57520.4
59090.5
77735.9
76549
74054.4
69663.6
67341.4
59619.9
55144
4027.77
2166.89
24722.8
36398.5
44806.2
50466.3
53904.9
55557.5
77699.9
76506.6
73998.8
69591.2
67268.2
59540
55088.5
2418.03
2191.19
24253.6
36409.9
44788.9
50458.8
53914.4
55570.4
77638.6
76440
73898.9
69436.8
67143
59377.3
54975.5
2969.51
2214.09
20694.6
36480.6
44760.1
50472.3
53954.4
55610
77575.7
76375.7
73745.6
69293.7
66982.9
59140.1
54844.1
2928.27
2243.47
21031.8
34116.5
44835.9
50529.2
54047.4
55693.3
77539.8
76318.7
73629.7
72196.2
66666.8
61971.5
56672.6
2657.31
2258.96
19129.4
33085.1
43492.1
50662.3
54244.6
55854.8
77526.1
76304.6
75529.2
72009.8
68569
63272.4
56761.2
2289.14
2262.71
19179.9
32750.7
43649
50035.6
54423.3
56090.1
77524.7
76291.9
75497.6
71854.7
69380.3
63262.9
56960.5
2287.51
2257.86
18906.2
33085.1
43307.3
50341.3
54646
56320.8
77539.2
76311.7
75484
73227
69334.1
63194.5
56825.6
5684.77
2253.2
17259.1
33349.2
43468.8
50645.2
54920.1
56570.3
77601.2
76363.6
75529.4
73268.6
69328.3
63122.1
56634.4
4849.69
2368.75
13100.6
33566.9
43834
50940.2
55178.6
56818.4
77673.8
76444.7
75639.9
71970.5
69410.9
63133.6
56597
2294.25
2280.63
18119.8
34117.1
44329.6
51194.7
55410.6
57027.9
77748.9
76520.9
73817.9
72291
68674.8
63231.7
56649.7
2279.95
2409.42
20312.3
34253.6
45094
52167.2
55583.2
57141.2
77829.8
76622.8
73976.1
69490.7
67010
59172.8
54876.4
2285.46
2332.17
21004
35831.4
46586.7
52181.3
55590.6
57197.3
77919.4
76710.7
74146.1
69640.7
67207.2
59389.1
54999.7
2288.77
2376.39
21964.1
38057.6
46470.8
52167.1
55583.7
57225.9
77993.5
76786.9
74249.4
69793.8
67407.6
59630.1
55210.3
2299.31
2392.06
25218.3
37835.8
46434.6
52149.4
55595.9
57244.3
78034.1
76831.9
74303.7
69862.9
67498.3
59805
55471.5
2853.23
2423
25749.7
37755
46411.8
52144.9
55601.3
57254.7
74746.3
73160.8
69788.3
63791.8
53391.1
43462.2
18284
2251.15
2195.32
26339.4
37908.3
45882.1
51157
54364.4
55901
74692.3
73094.6
69686.8
63647.8
53175.3
43239.8
18277.3
2266.37
2192.7
26146.8
37806.4
45770.8
51084.1
54322.7
55872.7
74599.1
72986.9
69528.4
63446.9
52846.8
42731.7
18082.7
2245.82
2216.62
21135.3
37485.7
45555.9
50959.7
54258.1
55832.6
74491.9
72877.6
69313.5
63190
57101.5
42242
18071.7
2270.68
2244.26
20949.9
33632.9
45267.3
50790.3
54187
55800.1
74410.8
72781.8
69171.7
65658.6
56942
45994.6
24521
2295.88
2257.25
17817.7
31645.6
42593.2
50653
54192.8
55814.5
74368.8
72703.8
70809.1
65547.9
59092.6
47885.9
25479.5
2276.55
2296.76
16892.2
30374.7
42307.1
48996.6
54235.6
55915.8
74347.8
72662.1
70816.1
65413
60002.9
47955.3
26207.8
2288.83
2315.73
15136.9
29975.6
41092.1
49084.4
54375.2
56074.2
74370.5
72688.3
70821.4
66814.2
59883.4
47768.4
25505.4
2515.91
2293.45
14389.2
29810.3
40729.5
49323.6
54635.6
56324.3
74460.6
72776
70889.2
66864.4
59873.5
47614.7
25193.3
2316.68
2302.49
12410.7
30019.1
41116.1
49719.4
54988.6
56633.5
74586.5
72923.5
71020.6
65602.2
60026.5
47642.1
25210.2
2271.67
2248.39
15913.5
31123.8
42347.4
50218.1
55395.4
56996.4
74712.6
73087.8
69486.7
65924.2
59224.8
47769.5
25230.1
2271.88
4786.81
18731.6
32248.6
44326.3
52481.8
55768.6
57292.6
74849.5
73236.9
69669.7
63519.9
57281.1
42383
19770.3
2277.35
2324.56
20423.6
35644.8
47488.5
52798.1
56005.7
57531.4
74984.9
73364.9
69885.7
63746.4
53026.5
42662.6
18179.9
2249.49
2384.11
22460.7
39564.5
47694.8
52992.4
56187.5
57707.4
75087.1
73473.1
70024.3
63900
53300
43101.2
18291.5
2234.19
2400.68
27374.9
39609.8
47774.2
53091.9
56294
57814.9
75141.9
73534.2
70106.4
64001.1
53456
43416.4
18505.9
2260.07
2440.05
27294.6
39510.1
47804.4
53135
56343.2
57865.9
73992.7
72374.8
68917.2
62928.6
52497.6
41076.7
6932.42
2258.06
4890.07
32540.4
43039.7
50006.9
54469.2
57132.2
58401.3
73913.7
72275.8
68755.5
62640.8
52147.9
40174.9
5856.86
2257.5
10851.9
32878.6
42993.1
49826.4
54328.7
57039.9
58332.8
73781.1
72117.2
68511.3
62292.3
52195.6
38613.6
7403.64
2248.14
2828.36
25147
42300
49387
54053.5
56877.4
58216.8
73626.5
71949.6
68253.4
61970.5
53939.4
37489.3
8667.25
2275.78
2232.14
24250.1
37056.2
48779
53667.6
56664.9
58080.5
73502.5
71817.3
68123.6
63243.2
53453.9
39733.7
17830.3
2293.42
2259.08
19351.6
33837.3
45023.3
53343.7
56522.9
57987.6
73431.3
71740.8
68933
63007.6
54766.7
40940
18978.3
2289.72
2303.64
17487.8
31615.6
44362.2
50888.8
56490.2
58007.3
73399
71686
68898.6
62864.7
55320.7
40964.4
20804.7
2278.23
2264.97
15369.4
30813
42433.8
50812
56593.7
58134.2
73439
71725.9
68930.8
63838.8
55175
40630.7
18482.9
2301.38
2354.53
17207.5
30600.6
41773.9
51065.4
56886.9
58412.2
73561.2
71861.6
69048.4
63933.2
55215
40407.6
17528.6
2302.03
2278.45
14878.1
31198.4
42400.4
51630.1
57350.4
58804.4
73742
72073.6
69224.4
63257.6
55489.6
40568.8
17544.8
2286.71
2291.71
18371.3
33085.4
44431.6
52406.6
57904.6
59265.5
73926.5
72271.3
68645.2
63661.7
55161.9
40909
17685.5
2293.21
4518.65
21255.2
34953.3
47452.5
55651.3
58419.5
59717.5
74119.4
72464.5
68806.6
62554.6
54186.4
37970.2
17292.5
2283.76
2343.74
23831.2
39934.9
51783.5
56181
58836.4
60098.5
74302.8
72640.5
69028.4
62752.5
52453
38082.7
7632.9
2268.57
2418.68
27042.2
45292.9
52173.7
56544.6
59157.1
60388.3
74438.6
72784.7
69215.1
62965
52266.1
39883.8
5615.49
2234.89
11578.3
34988.7
45511.4
52371.8
56753.9
59350.8
60571.7
74512.1
72864.8
69326.6
63115.1
52415.6
40315.2
5274.29
2261.03
2539.8
33355.2
45135.5
52378.6
56823
59437.4
60659.1
75680.2
74506.1
72046.9
68168.8
60033.5
51167.3
22209.2
2240.23
35153.5
49190.8
52985.6
57374.9
60142.8
61827.3
62655.6
75576.1
74366.8
71807.9
67663.8
58977.6
50109.9
11752.7
2275.35
31643
47597.5
52488.6
57010.4
59921.6
61690.7
62556.1
75406
74153.5
71473.6
66966.9
60322.5
46501.8
17708.2
2527.92
15661.2
36879
51418.9
56262.6
59500.8
61453.3
62385.6
75207.1
73900.2
71044.3
66286.1
58694.5
44145.3
16386
2298.9
2264.44
32670.3
44845.1
55323.6
58907.5
61140.7
62179.2
75043.6
73690.7
70769.9
65878.5
57284.1
43404.5
20612.3
2289.38
2306.34
24048.8
40153.6
50799.9
58501.7
60908.6
62031.3
74944.8
73591.6
70567.3
65233.8
56957.3
42882.3
19380.8
2269.81
2406.73
20119.9
36603
49793
55470.2
60873.4
62021.1
74901.1
73518.2
70378.8
64944.3
56782.1
42314.4
19360
2251.8
2287.37
17881.7
35050.4
47292.9
55338.4
60984.3
62147.7
74960.7
73578.7
70407.6
65251.2
56588.5
42053.8
19923
2120.92
2247.79
9580.32
34304.6
46422.2
55673
61332.5
62463.4
75120
73770.1
70600.6
65450.8
56827.3
42170.5
18795.3
2315.1
2375.48
17184.1
36254.8
47507.7
56426.1
61887.9
62924.9
75361.1
74063.9
70913.5
65753.7
57489.5
43045.1
19270.4
2355.09
2324.78
25321.8
39929
50446.7
57445.3
62539.3
63468
75608.7
74327.7
71577.6
66429.1
58204.6
44205.5
20018.5
2356.18
7046.36
29902.4
43029.5
54350.5
61378.9
63150
64011.4
75858.9
74609.3
71877.8
67326
59042.3
44600.4
20025.7
2307.3
5314.6
34116.7
49490.3
59422.5
62021.7
63681.7
64479.4
76090.4
74862.7
72223.2
67721.3
60911.3
45558.5
15065.4
2364.22
17336.9
39760.2
55865.6
59882.5
62502.9
64086.8
64842.4
76260.8
75047.3
72455.1
68131.2
58954.1
49072.7
2455.81
2363.72
32778.3
51048.2
55960.5
60231.3
62818.6
64348.4
65081.3
76353.2
75149.8
72596
68367.1
59263.5
49789.7
3408.36
2400.92
32071.6
51579
55816.1
60285.7
62921.2
64461.2
65192.9
79301.3
78904.6
78172.8
78311.7
77894.5
86024.5
126800
121705
89226.4
72824.1
67430.5
67417.7
67503.2
67845.8
68096.9
79180.9
78729.8
77877
77690.7
76562
84817.8
130086
100047
81551.2
70223.5
66313.3
66798.4
67202.4
67682
67982.5
78985.6
78460.6
77465.1
76097.3
75546.5
69946.2
81660.3
68047.1
55799.1
58554.1
64456.8
65656.4
66676.3
67406
67789.9
78750.8
78126.6
76826
74972
69832
63408.1
53237.7
25284.6
22285
51412.7
57689.4
64496.7
66006.6
67061.7
67558.5
78556.5
77845.3
76392.4
72555.6
67802.1
57899.6
35893.2
2205.07
2305.8
36553.5
51946.9
59825.4
65573.8
66809.2
67406.8
78438.7
77698.7
75003.9
71705.2
65586.1
54507
30556.8
2261.08
2240.7
29673.2
47187.7
58767.3
62447.9
66798
67416.1
78386.5
77613.3
74718.3
71320.6
64447.3
52662.1
28602.8
2309.63
2288.66
26162.4
44893.1
55951
62317.9
66937.3
67559.4
78462
77694.3
74748.6
70810.2
64090.2
51792.4
27183.2
1953.72
2283.01
19394.1
44466.4
55060.1
62806.6
67321.2
67900.1
78653.4
77929.8
75008.5
71143.9
64623.7
52669.9
29328.2
2342.6
2254.53
28641.7
47746.1
56558.7
63683.2
67896.4
68391
78946.5
78291
75449.3
72581.5
65983.3
55826.8
33543.7
2281.51
16412.9
42531.5
53095.6
60149.2
64803.4
68569.9
68964.3
79250.9
78654.9
77477.9
73440.7
68099.4
59187.1
40276.3
2319.96
30358.1
51353.1
57489.1
64510.2
68750.5
69257.6
69535.1
79558.5
79033.1
77962
76537.1
71000.7
65216.5
41571.7
8767.91
27992.7
57466.4
64726.6
69242.8
69528.5
69848.5
70041.6
79841.6
79376.7
78507.8
77322.3
77037.7
67535
57514
46711.3
52390.2
63698.7
70015.4
69953
70073.4
70286.4
70439.5
80047.4
79622.7
78821.7
78611.1
76981.3
86129.5
121629
95953.2
86275.4
75693.3
70779.9
70656.7
70497.2
70608.6
70718.7
80155.5
79751.1
78995.9
78982.4
77384.3
87747.1
121426
114685
96348.8
78433.8
71418.9
71021.6
70691.4
70743.4
70840.8
83739.1
84091.4
84757.4
87735.6
92351.1
97177.9
121517
121942
103631
88565.8
80645.4
77193.1
75032.8
74228.2
73935.9
83637.6
83941.9
84566.4
87473.9
92100.6
97460.7
128012
130648
103314
87393.4
79786.6
76651.4
74766.7
74075.9
73831.4
83461.2
83651
84253.3
85720.7
89860.7
92882
111023
132378
103205
84337
77828.9
75485.3
74296.1
73814.6
73658.5
83237.3
83320.3
83602.2
84563.1
84316.2
89569.7
105141
132355
96122.9
79651
73979.8
74326.4
73708.8
73532.9
73464.1
83054.4
83050
83116.6
81515.9
82058.6
81823.2
84135.1
105739
65046.8
67661.5
69176.8
70955.5
73280.7
73321.9
73339.6
82950.8
82819.8
81203.8
80685.6
78822.5
76628.4
72920.7
21977.8
29148.7
58413.6
64664.5
70107.9
70860.9
73267.7
73376.7
82907.9
82736.4
80958.6
80250.2
76827.8
73743.9
63944
2313.82
2258.32
49751.9
62406.2
67834
70863.3
73417.6
73533.5
82992
82826
80995.6
79054.7
76397.9
71337.7
55374.6
10371.1
2365.73
49975.3
62657
67101.8
71342
73800
73869.8
83190.5
83062.7
81268.3
79425.2
77065.1
72419.6
41543.5
2254.82
28600.1
58965.2
66058.6
68676.2
72150.4
74338
74331.8
83496.8
83444.3
81737.2
81538
78735.8
78339.6
76765.6
86412.3
90601.2
73863.9
71306.7
71940.9
73199.9
74968.5
74872
83822.1
83940.5
84266.4
82672.3
81942.2
83269
93770.6
147283
120435
84466.2
75878.9
75410.1
76282.2
75678.2
75431.6
84159.1
84366.3
84948.1
86499.1
86421.9
93169.3
105997
176154
115614
89346.1
81080.4
78902.9
77165.6
76291.7
75942.6
84466.1
84754.9
85600.7
87555.4
92734.2
97019.7
124632
159667
120279
93309.1
83742.8
79950.6
77761.4
76746
76339.6
84683.4
85062.2
85863.3
89079.5
93700.7
101328
133637
138190
112930
93415.4
84631.2
80762.3
78188
77072.3
76619.1
84786.7
85186.1
85961.2
89234.9
93288.9
100431
126091
121003
114719
93708.4
85240.5
81217.3
78408.7
77232.4
76754.4
87723.2
88371.2
89261.5
91619.3
95477.6
94075
96500.4
99532.5
96126.7
91199.9
86910.2
83611.7
81067.1
79876.5
79304.9
87696.7
88337.4
89326.3
91977.3
96336
95809.1
100600
104209
97375.4
91909.6
87048.2
83506.3
80982.8
79800.2
79248.2
87626.8
88170.9
89401.7
91587.3
95501
98030.2
103968
114942
100280
92702.9
86511
83008.6
80784.1
79647.3
79150
87508.4
88007.5
89140.1
91617.6
93106.7
100054
111705
125664
109433
93468.3
85797.1
82483.7
80465.4
79485.2
79041.4
87398
87841.5
88876.4
89378
92905.5
98731.9
113731
149732
118075
93898.3
84371.5
80886.7
80132
79344.9
78966.3
87324.8
87616.3
87398.4
88812.4
90779.6
96748.5
114750
164643
121991
92004
82795
80406.7
78862.9
79281.3
79018.4
87314.5
87575.5
87313.2
88540.6
89602.4
95770.4
113427
176305
122327
89820.7
81936.7
79560.7
78979.7
79430.7
79180.6
87405.2
87667.4
87364
87690.3
89393.2
95064.5
111446
168583
119509
89519.8
82345.1
79654.8
79359.4
79768.2
79492.2
87577.6
87864.1
87592.4
87956.2
89851.8
96257.5
118370
154191
105014
91208.3
84217.5
80794.6
80024.9
80231
79895.1
87846.1
88185.5
87962.2
89454.7
90797.8
98391.7
125730
46303.8
110974
96612.1
86986.2
82625
80862
80778.7
80366.7
88164
88702.2
89952.2
90354.6
92645.8
99499.4
115654
136025
127123
101178
89339.4
84558.3
82846.2
81452
80879.3
88472.3
89086.8
90492.4
93390.9
95306.3
103735
117172
142662
123591
101849
90930.8
86354.9
83534.8
82001.4
81338.1
88722.2
89388.1
90913.2
93688.9
98297
103135
111489
125857
109949
100058
91380.8
87003.3
83955.5
82387.1
81674.8
88876.3
89636.1
90894.3
94153.3
98953.2
100107
108238
115068
106154
97104.4
91671.9
87377.4
84196.7
82648.8
81905.7
88931
89692.6
90825.9
93932.5
98162.9
98419.4
106785
111424
106340
95799.7
91723.8
87545
84297.6
82774.7
82016.2
90624.5
91170.1
91710.5
92574
94711.5
93571.5
92953.2
95829.6
92943.8
90941.8
89099.6
87029.3
85193.6
84225.8
83659.1
90688.2
91262.7
91941.4
93183.5
95707.8
95062.3
94992.8
95693.4
93893.1
92134.6
89647.7
87258.6
85296
84249.7
83672.1
90772.9
91298.3
92333.9
93858.5
96259.7
97700.2
100224
103838
98763.3