/*--------------------------------*- C++ -*----------------------------------*\
| =========                 |                                                 |
| \\      /  F ield         | OpenFOAM: The Open Source CFD Toolbox           |
|  \\    /   O peration     | Version:  v2012                                 |
|   \\  /    A nd           | Website:  www.openfoam.com                      |
|    \\/     M anipulation  |                                                 |
\*---------------------------------------------------------------------------*/
FoamFile
{
    version     2.0;
    format      ascii;
    class       volScalarField;
    location    "0.016";
    object      p;
}
// * * * * * * * * * * * * * * * * * * * * * * * * * * * * * * * * * * * * * //

dimensions      [1 -1 -2 0 0 0 0];


internalField   nonuniform List<scalar> 
449343
(
107711
107834
108037
108221
108283
107985
107151
105706
103706
101364
98974.4
96815.2
95079.1
93877.1
93265
107689
107812
108016
108202
108265
107968
107135
105693
103697
101358
98969.8
96809.7
95071.4
93867.3
93253.9
107664
107789
107994
108181
108247
107951
107121
105684
103695
101362
98977.7
96816
95073.4
93865.2
93249.4
107637
107763
107970
108159
108228
107931
107106
105675
103695
101372
98993.3
96829.7
95081
93866.9
93247.7
107607
107734
107942
108133
108204
107907
107086
105662
103694
101381
99009.1
96843.5
95087.7
93866.4
93243.2
107572
107701
107911
108103
108175
107878
107059
105643
103684
101382
99015.3
96847.8
95084.8
93856.7
93229.9
107534
107663
107874
108066
108137
107840
107022
105609
103658
101366
99001.4
96833.9
95064.9
93831.5
93201.6
107491
107620
107831
108022
108091
107792
106970
105556
103606
101320
98957.2
96789.7
95019.4
93784.9
93154.5
107444
107572
107782
107972
108037
107735
106912
105494
103540
101247
98882.4
96716.6
94949.9
93718.3
93089.5
107396
107523
107731
107918
107979
107674
106846
105422
103457
101153
98786.8
96621.7
94861.8
93636.5
93011.1
107349
107474
107679
107864
107921
107614
106781
105347
103371
101054
98681.6
96518.4
94766.1
93548.1
92926.8
107304
107427
107629
107812
107867
107558
106721
105278
103289
100962
98581.3
96419.3
94673.6
93462.3
92844.9
107264
107386
107586
107766
107819
107510
106668
105219
103220
100882
98495.1
96333.7
94593
93386.9
92772.5
107230
107351
107549
107728
107780
107470
106625
105171
103165
100820
98428.6
96267.6
94530.1
93327.4
92714.9
107203
107324
107521
107698
107750
107439
106593
105137
103127
100778
98384.9
96224.2
94488.2
93287.1
92675.6
107577
107748
108050
108387
108620
108542
107838
106324
104065
101380
98691.3
96334
94488.9
93234.2
92601.6
107555
107726
108029
108368
108603
108525
107824
106313
104059
101379
98691.3
96331.6
94482.9
93225.4
92591.2
107530
107702
108008
108350
108587
108510
107811
106308
104064
101394
98709.8
96345.2
94489
93225.4
92588.1
107502
107676
107985
108330
108569
108489
107792
106296
104070
101418
98741.8
96370.3
94502.7
93230.2
92588.3
107471
107647
107959
108309
108549
108460
107772
106288
104068
101445
98780.2
96399.6
94517.1
93233.3
92586
107436
107614
107930
108283
108525
108434
107744
106273
104074
101463
98808.3
96420.4
94522.1
93226.4
92574
107397
107576
107894
108249
108486
108402
107710
106243
104058
101462
98821.2
96419.7
94507.3
93204.2
92546.4
107353
107532
107850
108205
108439
108351
107653
106139
103998
101414
98780
96377
94461.2
93156.4
92498
107306
107484
107800
108151
108383
108292
107593
106119
103928
101333
98693.5
96295.3
94386.5
93085.9
92430.2
107256
107433
107745
108092
108324
108222
107520
106037
103829
101218
98564.5
96180.9
94288.6
92998.1
92347.7
107208
107382
107689
108030
108260
108157
107453
105955
103724
101098
98434
96058.4
94182.3
92904
92259.5
107163
107335
107638
107974
108201
108105
107393
105882
103645
100988
98311.8
95944
94081.6
92813.6
92174.3
107123
107293
107593
107925
108151
108059
107344
105828
103574
100898
98211.6
95848.5
93995.5
92735.2
92099.8
107090
107258
107556
107886
108110
108018
107303
105780
103515
100828
98136.8
95776.8
93929.6
92674
92041.1
107063
107231
107527
107856
108079
107987
107271
105744
103475
100783
98089.7
95731
93886.4
92633
92001.3
107234
107511
108037
108733
109427
109902
109594
107901
104951
101367
97944.1
95138.7
93058
91692.2
91017.5
107210
107488
108017
108715
109412
109887
109581
107896
104954
101378
97954.9
95143.4
93056
91685.6
91008.5
107183
107463
107996
108700
109403
109879
109570
107902
104975
101422
97999.9
95173
93070.4
91690.1
91008.4
107152
107436
107974
108687
109396
109860
109536
107902
104983
101484
98077
95225.7
93097.5
91701.6
91012.6
107119
107406
107952
108674
109385
109820
109469
107846
104972
101576
98172.7
95290
93129.2
91712.8
91014.8
107081
107373
107929
108658
109380
109782
109431
107851
105018
101651
98278.1
95350.4
93150.7
91713.5
91006.1
107040
107334
107893
108633
109337
109765
109398
107831
105024
101670
98395.6
95380.6
93149.2
91693.7
90978.9
106994
107289
107848
108590
109294
109722
109363
107764
104959
101619
98355.7
95337.9
93101.7
91644
90927.5
106944
107238
107794
108530
109226
109640
109262
107682
104863
101517
98246.7
95237.5
93014.1
91564.4
90852.6
106894
107183
107733
108454
109164
109553
109174
107570
104720
101362
97989.9
95076
92890.6
91463.5
90761.3
106845
107129
107669
108381
109079
109492
109115
107470
104573
101176
97778.2
94908.6
92762.2
91356.8
90664.5
106800
107080
107612
108313
109008
109448
109102
107444
104508
101006
97602
94760.4
92643.4
91256.6
90572.5
106761
107038
107564
108258
108948
109403
109074
107389
104446
100886
97463.8
94641.7
92545.9
91171.8
90493.5
106729
107004
107526
108215
108900
109359
109036
107335
104380
100796
97368.8
94558.1
92473.9
91107.1
90432.3
106703
106977
107497
108184
108868
109326
109004
107297
104335
100743
97314.5
94507.8
92428.3
91064.7
90391.5
106551
106984
107848
109119
110666
112192
113027
110986
106520
101053
96391.1
92970.9
90617.1
89143.2
88436.3
106525
106959
107826
109102
110654
112181
113010
110988
106535
101081
96416.5
92983.6
90619.3
89139
88428.9
106493
106930
107804
109092
110657
112187
113013
111028
106605
101191
96503.8
93033.4
90643.2
89148.6
88431.8
106456
106898
107784
109091
110669
112210
112834
111078
106599
101392
96671.5
93122.5
90685.8
89167.6
88440.3
106416
106863
107762
109088
110693
112144
112089
110834
107450
101680
96893.9
93245.8
90738.2
89187.4
88446.8
106372
106829
107755
109129
110750
111347
111969
110845
107598
103017
97180.2
93373.3
90783.2
89194
88440.3
106325
106787
107722
109106
110061
111362
111930
110830
107626
103112
98483.2
93428.3
90789.8
89175.2
88411.1
106274
106740
107679
109065
110013
111331
111905
110691
107577
103086
98429.4
93377.2
90744.9
89121.9
88352.4
106223
106684
107616
108996
109947
111246
111792
110649
107459
102953
98311.9
93249.5
90629.9
89026.1
88268.1
106172
106625
107542
108903
110511
111122
111685
110536
107284
102751
96790.1
93032
90475.7
88908.4
88165.3
106124
106568
107461
108774
110356
111777
111703
110429
107103
101183
96405.2
92792.2
90316.4
88787.7
88058.2
106081
106519
107396
108689
110247
111754
112349
110549
106034
100824
96116.1
92590.9
90177.6
88676.6
87958.4
106046
106480
107346
108622
110170
111679
112466
110461
106017
100592
95905.9
92446
90069.1
88585.5
87874.7
106016
106447
107308
108573
110112
111623
112428
110387
105918
100452
95781.7
92350.8
89992.1
88517.7
87811.2
105992
106422
107280
108542
110077
111588
112403
110348
105869
100389
95719.2
92296.8
89944.9
88474.3
87769.6
105333
105935
107189
109189
112000
115517
119254
116421
108876
99651.1
93314.1
89420.4
86966
85517.6
84851.5
105302
105906
107162
109169
111989
115510
119233
116420
108908
99706
93352.7
89437
86969.7
85514
84844.2
105260
105868
107132
109157
112008
115544
119257
116467
109069
99884.3
93478.4
89496.4
86997.5
85525.4
84847.6
105210
105823
107105
109183
112135
115699
116935
116620
110782
100528
93806.3
89625.1
87047.7
85547
84856.7
105154
105771
107075
109195
112185
114184
116938
116656
111090
103049
94208
89789.3
87113.9
85568.4
84862.5
105097
105731
107084
109354
111280
114351
116986
116656
111272
103555
96604.2
90014.7
87157.6
85578.1
84853.1
105034
105667
107022
108711
111304
114408
116040
116018
111691
104692
96957
91944.8
87117.7
85535.6
84813.1
104979
105618
107029
108664
111287
114381
116010
115968
111714
104753
97033.6
91968.6
87165.3
85465.9
84748.7
104922
105555
106909
108592
111204
114285
115878
115817
111494
104550
96811.2
91808.7
86923
85358.9
84647.6
104877
105507
106850
109105
111035
114091
115798
115620
111185
103180
96309.2
89566.7
86779.9
85243.5
84537.7
104836
105451
106748
108850
111811
113849
116477
116052
110468
102659
93552.3
89220.6
86613.6
85109.8
84423.3
104804
105413
106684
108744
111670
115195
116413
116068
110348
99805.1
93127.8
88998.6
86465.6
84995.3
84320
104778
105382
106639
108651
111485
114996
118666
115927
108414
99201.2
92798.1
88835.3
86358.6
84904.2
84235.7
104756
105357
106607
108604
111411
114922
118602
115811
108247
99020.9
92657.9
88744.2
86285.1
84837.7
84173.1
104736
105335
106583
108575
111376
114880
118593
115765
108191
98945.8
92592.6
88693.2
86240.3
84795.6
84132.3
103337
104060
105625
108320
112636
119441
124940
130078
116114
94784
87498.6
83933.6
81854
80749.5
80278.3
103297
104021
105589
108290
112621
119432
124918
130065
116119
94832.3
87532.1
83942.6
81853.6
80743.2
80268.6
103239
103964
105533
108240
112601
119460
124897
130077
116181
94945.7
87597.6
83964.3
81871.1
80749.2
80267.4
103166
103896
105483
108243
112919
117243
124958
130236
116404
99746
87944.1
84008
81903.6
80764.5
80270.2
103078
103802
105385
108239
111654
117471
125244
127942
118077
100937
91570.7
84143.4
81910.7
80764.7
80266.5
102995
103712
105370
107775
111690
116487
123478
127055
118635
103841
92200.4
86800.8
81923.4
80738.6
80243.6
102903
103606
105291
107746
111755
116461
122546
127196
119589
105353
94237.7
87011
81843.2
80657.9
80183.7
102830
103521
105253
107738
111057
115888
122483
127166
119713
105499
94282.4
87013.5
83813.7
80530
80095
102779
103480
105155
107642
110980
116263
122342
126892
119259
105062
93958.7
86737
81565.6
80442.9
79989.8
102751
103465
105116
107495
111509
116207
122161
126571
118605
104333
93444.6
86398.4
81448.6
80343.7
79879.9
102727
103448
105024
107853
111241
117085
122871
127265
117505
102488
91050.7
83409.7
81308.6
80233.9
79766.6
102719
103444
105019
107764
112407
116752
124413
129604
115726
99251.7
87110
83263.6
81232.9
80140.6
79668.6
102711
103433
104996
107691
112036
118869
124297
129440
115546
94163.1
86824.2
83218.6
81156.9
80059.6
79590.7
102702
103423
104985
107678
111998
118799
124255
129406
115457
94099.1
86775.1
83184.3
81103.1
80002.5
79534.1
102689
103410
104971
107660
111969
118768
124260
129399
115433
94049.4
86728.5
83149.7
81067.2
79965.3
79496.9
100351
101046
102606
105463
110380
117162
133569
163296
119710
86802.3
76938.4
75780.4
75124.7
74922.7
74870.8
100300
100994
102550
105404
110323
117112
133500
163237
119602
86771.8
76934.4
75767.1
75115.4
74910.3
74856.1
100217
100904
102446
105271
110142
117005
133320
163122
119618
86876.7
76871
75741
75113.1
74901.8
74844.9
100108
100784
102310
104971
109434
117241
133212
162903
119710
87318.3
80579.6
75562.8
75104.8
74894.6
74834.4
99966.4
100614
102037
104949
109345
116240
130114
162662
121277
92015.4
80855.2
78139.3
75002
74865.5
74812.9
99823.7
100395
102419
104905
108989
116063
128538
157618
127393
95425.3
83951.3
78355.6
76947.6
74786.5
74771.3
99702.6
100261
102326
104799
108898
115516
128242
157508
130140
97362.3
85977.6
80291.9
76925.2
74730.8
74707.4
99600.9
100158
102303
104734
108796
115359
127998
157261
131543
98109.1
86189.5
80300.5
76901.4
74632.7
74575.4
99562.2
100119
102188
104683
108741
115268
127857
156803
129374
96698.7
85552.5
79986.3
76661.7
74488.1
74483.3
99547.6
100117
102144
104575
108693
115255
127881
156644
126796
94638.4
84543.6
79472.1
76421.8
74337.3
74357.3
99571.6
100214
101628
104525
108876
115717
128062
156824
125394
93271.4
82472.6
77339.7
74295.8
74258.7
74246.7
99606.4
100279
101795
104449
108769
116555
129586
161994
119178
90776
79640.9
74698.8
74341.1
74192.1
74160.5
99628.1
100312
101850
104663
109524
116343
132621
162298
118947
86178.5
76022.9
74909.3
74317.3
74136
74094.8
99639.2
100332
101885
104735
109647
116418
132748
162489
118961
86082.3
76130.7
74942
74292.1
74096.5
74048.9
99635.3
100330
101889
104746
109659
116430
132822
162570
119048
86079.6
76133.3
74937.9
74269.4
74067.2
74017.4
96320.4
96733.3
97656.2
99366.6
102217
108836
116220
113957
27456.3
56155
61895.2
65206.6
67251.7
68515
69086.3
96259.1
96667.8
97583.7
99281
102136
108742
116130
113793
25263.3
55976.1
61835.8
65184.2
67240
68496.8
69065.3
96153.3
96546.8
97444.3
99127.2
101926
108531
115905
113509
25136
56105.8
61849.8
65249.1
67253.7
68482.6
69045.1
96008.6
96368.2
97227.2
98737.8
103080
107962
115441
113017
26837.8
56705.7
63578.1
65452.4
67315
68480.1
69029.1
95819.4
96140.7
96909.8
99745.6
102663
108154
115915
112239
28299
61112.5
65797.2
67173.2
67453.4
68504.7
69012.4
95611
95908.1
97901.4
99483.4
102984
108190
115330
111110
34462.4
64292.5
68027
67626.6
68840.3
68556.2
68979.3
95473.5
95759
97754.9
99277.7
103095
107906
114801
109752
58058.7
69150.7
69482.8
69111.2
68844.4
68549.6
68935.2
95365.1
95639.2
97627.6
99827.7
102964
107702
114428
108650
66507.9
70951.6
69895.8
69839
68815.6
68456
68795.9
95311.7
95596.5
97556.2
99747.6
102885
107618
114353
108787
50893.4
67223.4
68834.7
69417.4
68569.6
68281.7
68678.7
95289.6
95587.4
97551.5
99069.5
102859
107661
114560
109718
32815.8
62794.5
67235
68134.6
68259.3
68059.9
68516.5
95366.7
95678.2
96430.2
99170.2
102637
107806
114936
110769
28001.3
60497.8
65941.9
66339.8
66673.7
67830.2
68378.6
95434.3
95791.2
96646.4
98143.8
102347
106986
114359
111773
26129.6
57693.7
62504.8
64488
66460.6
67697.2
68277.6
95482.8
95874.1
96770.3
98460.9
101257
107598
114936
112377
24948.9
55348
60932.2
64333.4
66373.4
67634
68213.1
95512.4
95920.4
96836.1
98534.6
101397
107955
115261
112770
24895.8
55301.8
61000.8
64290.4
66337.2
67600.2
68174.6
95516.8
95929.9
96855.2
98572
101435
108053
115399
112971
25420.4
55427
61070.4
64300.5
66318.4
67576.7
68148.9
91523.2
91414.3
91166
90771.2
90632.4
94475.9
98128.8
111453
8779.54
34866.8
48190
55306
59914.2
62580.7
63771.1
91457.3
91344
91090.7
90688.8
90563.5
94383.4
98037.8
111213
3139.5
34640.2
48099.7
55287.2
59896.9
62552.9
63739.7
91344.7
91220.7
90958.2
90584.7
90412.8
94182.2
97823.4
110992
6302.88
34768.5
48245.6
55397
59915.4
62533.8
63705.6
91194.2
91038.4
90762
90496.8
93026.4
93990.3
97427.5
110649
2613.25
35345.2
48628.9
55763.3
60029.3
62546.1
63681.7
91010.2
90830.6
90600.3
92324.8
92872.7
95591.2
98197.1
110272
2450.29
35956.8
49845.5
56790.5
60230
62615.5
63673.1
90811.2
90694
91946.3
92095.5
93892.9
96139.3
97789.8
109430
6219.1
38364.8
51248.4
57192.1
61059.6
62676.9
63650.6
90678.6
90572.1
91741.7
91949.9
94347.2
95868.3
97408.5
108799
2425.65
41268
52254.1
57929
61098.6
62645.7
63583.4
90560.9
90448.1
91588.8
92754.2
94186.4
95673.4
97139
108196
2291.71
41285.5
52423.9
58181.8
61034.4
62535.8
63446.7
90487.7
90378.6
91500.8
92663.9
94095.3
95576.9
97040.2
108021
2302.36
39152.8
51668.2
57839.5
60806
62347.8
63308.1
90438.6
90321.6
91489.3
91701.5
94068.6
95592
97124.3
108320
2323.41
36593.4
50420.8
57024.6
60490.7
62123.2
63137.3
90472
90282.4
90038.9
91656.1
93497.3
95728.3
97356.7
108886
4594.37
35356.1
49389.7
55888
59372.2
61868.2
62965.8
90520.9
90357.8
90065.9
89812.1
92345.9
93412.8
96801.8
109668
2398.92
34660.5
47935.1
54731.6
59085.6
61677
62843.6
90566.8
90438.3
90170.2
89801.8
89663.5
93396.8
96906.7
109963
2580.86
34180.9
47291.1
54402.4
58942.7
61591.2
62779.6
90598.3
90483.7
90232.9
89846.9
89750.7
93559.5
97180.5
110257
2834.89
34045.5
47224.2
54313.4
58898.9
61558.3
62751.1
90605.3
90496.7
90253.9
89878.2
89771.6
93664.8
97319.3
110424
2894.23
34151.6
47322.6
54316.5
58883.3
61542.1
62733.7
86662.6
85978.9
84543.5
82194.7
81692.6
80188.2
82433
2297.68
26882.3
41155.9
49430.4
55084.3
58432.1
59981.1
86596
85908.5
84468.8
82116.5
81615
80105.1
82356.7
2294.62
26593.8
41063.3
49395.7
55037.2
58378.3
59924.8
86488.3
85798
84344.3
81995.6
81526.1
79981.4
82185.5
2298.21
26452
41182.9
49405.8
54984.5
58310.1
59843
86354.2
85654.2
84179.9
81979
81639.1
79762.3
81871.4
2298.03
26828.1
40142.2
49631
54984.3
58249.6
59752.6
86208.4
85500.8
84129.3
83910.9
82000.1
81644.3
82334.9
2283.49
25344.6
40093.9
49372.2
55020.5
58224.3
59666
86052.4
85449.7
85408.8
83983.6
83102.2
82432.6
82115.2
2307.03
26414.2
40317.1
49412.4
54887.6
58080.2
59562.8
85923.1
85329.2
85266.6
83921.9
83718.9
82319.9
81955.9
2211.74
27160.6
40372
49260.4
54799.2
57907.6
59408.1
85789.3
85196.3
85120.7
84624.8
83686.8
82199.2
81829.3
40881.6
25960.3
40071.9
49058.3
54598.4
57743.4
59230.9
85692.9
85089.9
85005.6
84516.5
83564.6
82064.7
81682.9
11583.5
31984.3
40263
48853.7
54419.8
57576.5
59096.6
85601.9
84999.8
84939.6
83569.4
83366.2
81942.1
81551.2
2015.76
26667.3
39596
48566.3
54249.3
57456.8
58981.1
85561.9
84835.8
83435.9
83231.5
82522.9
81881.2
81568.3
9803.89
24466.3
38851
48271.9
54058.1
57378.6
58867.3
85553.9
84839.4
83331
81141.3
80857.2
79148.8
80840.6
2294.11
25004.6
39250.5
48471.4
53923.1
57271.4
58810
85572.5
84872.4
83406.4
81069
80607.3
79149
81348.6
2298.55
25880.2
40126.6
48281.3
53883.9
57248.8
58803.9
85594.6
84901.8
83461.2
81139.8
80698.2
79288.8
81599.9
2298.25
26009.6
40069
48282.5
53905.1
57259.7
58818
85600.2
84913.3
83481
81166.1
80694.1
79344.2
81701.6
2308.11
26143.1
40167.3
48300.8
53917.6
57266.8
58822.8
82649.6
81453.4
78925
74432
71767.8
63493.7
58425.6
3763.69
2293.17
26686.7
39647
47939
53546.9
56891.3
58482.7
82577.3
81375.2
78834.2
74320.2
71663.7
63376.5
58350.5
2402.11
2298
26598
39482.1
47857
53440.4
56789.3
58381.9
82461
81253.7
78679.2
74110.1
71494.8
63150.1
58214.9
2373.86
2298.04
22737.4
39469.5
47693.9
53255.4
56617
58207.8
82317.8
81108.7
78455.3
73890.4
71235.7
62797.9
58009
2363.6
2304.54
23250.3
36625.6
47545
53011.3
56386.4
57977.1
82169.9
80935.7
78232.5
76552
70702
65547.8
59652.5
2417.31
2300.68
21255.3
35411
45656
52704.3
56134.8
57712.2
82011
80766.5
79915.3
76237.3
72537.3
66759.5
59653.1
2301.57
2273.51
22112.6
34628.9
45171.3
51386.8
55739.2
57418.7
81848.8
80588.8
79740.1
75935.9
73240.3
66692.7
59803.6
2284.83
2304.46
20577
33533
43900.2
50974.7
55392
57125.1
81684
80422.3
79548.4
77162.3
73062.2
66646.3
59990.8
2264.58
2184.58
11642.7
32309.3
43069.1
50629.8
55144
56890.9
81560.2
80279.8
79404.6
77015.5
72879.1
66442.3
59828.6
18913.4
2250.34
20007.5
32692.9
42883.5
50475.9
55014.5
56777.3
81462.1
80189.4
79334.9
75469.8
72743.5
66117.4
59108.5
2303.79
2311.45
18112.6
32591.2
43198.1
50465.6
55032.4
56766.7
81387.5
80118.8
77311.4
75654.5
71808
66001.5
58918.1
2260.98
2270.4
18996.7
32843
44055.8
51556.7
55167.7
56809.9
81359.7
80118.6
77392.4
72771.8
70047.2
61833.3
57194.9
2337.93
2296.63
20801.7
35221.6
46124.9
51766.6
55265.5
56913.8
81376.3
80144.1
77528
72935.1
70288.7
62200.5
57578.6
2338.49
2298.97
22277.6
38112.4
46328.1
51970
55406.2
57037.5
81402.6
80182
77615.2
73101.3
70529.4
62478.7
57865.1
2474.11
2297.81
25792.6
38222.9
46515.7
52125.5
55517.7
57138.6
81412
80200.3
77652.6
73164.4
70612.2
62578.9
57853.9
2764.4
2298.33
25829
38383.8
46590.9
52199.8
55571.6
57185.4
80290
78747.2
75439.8
69502.8
58970.5
48094.7
21162
2319.52
2302.42
30359.9
42500.7
50061.6
55078.9
58034.5
59442
80203.4
78651.1
75314.1
69337.2
58723.7
47809.8
21045.5
2269.71
2305.21
30126.5
42230.1
49879.3
54889.3
57869
59286.7
80060.3
78496.3
75113.6
69095.6
58327.1
47153.5
20880.5
2293.3
2305.15
24387.1
41896.6
49522.8
54539.3
57564.7
59002.6
79877.1
78314.7
74848.9
68802.5
62193.9
46510.7
20921.2
2295.3
2305.78
24458
37409.1
48931.3
54001.9
57116.1
58600.4
79683
78107.1
74634.4
70895.3
61936
50056.7
26943.4
2269.83
3004.2
20729.8
34846.1
45517.1
53290.7
56578.5
58117.9
79478.9
77888.1
75891
70654.1
63860.3
51847.6
27761
2292.09
2358.27
19115.9
32448.7
44277.7
50799.8
55943.3
57601.4
79269.3
77651.9
75726.4
70370.3
64620.4
51892.8
28242.4
2267.33
2274.42
9189.41
29596.5
41735.8
49951.6
55398.5
57156.9
79067.2
77434.1
75499.9
71440.8
64371.4
51932.7
28768.7
2295.07
2174.41
2296.5
27526.3
40178.5
49398.9
55059.3
56856.8
78915
77255
75297.9
71200
64065.3
51550.5
28680.8
2274.89
2184.75
2454.46
27612.2
39965.1
49272
54975.6
56777.1
78809.4
77149.5
75161.5
69630.6
63795.7
50880.4
26991.3
2312.24
2317.31
9042.98
28300.7
40986.6
49499.9
55140.4
56887.8
78736.5
77090.1
73409.7
69681.2
62678.7
50644.9
26748.8
2302.03
2289.33
16154.2
30309.2
43194.4
51955.1
55486
57119.9
78735.1
77103
73479
67241.8
60673.8
45227
21527.1
2257.08
2767.17
20292.7
35136.1
47155.5
52529.6
55847.1
57423.2
78783.1
77161.1
73668.7
67529.5
56765.4
45804.5
20845
2284.91
2306.84
23072
40054
47816.6
53024.1
56194.8
57705.5
78833.5
77232.3
73810.6
67752.8
57145.6
46418.6
20693.7
2282.92
2302.91
28814.9
40524.9
48228.7
53351.3
56435.1
57909.9
78856.3
77269.1
73886.5
67876.8
57336.4
46738
20559.1
2296.99
2304.68
29069.8
40821.7
48419.4
53510.6
56551.5
58008.2
80152
78664.3
75451.1
69833.9
59786.8
47902.5
10816.1
2296.49
17887.8
40685.9
49727.2
55539.7
59322.7
61506.4
62554.1
80048.2
78547.9
75290.2
69579.3
59514.8
46818.9
9858.7
2227.62
18587.5
40299.3
49345.6
55231.9
59043
61278.9
62347.6
79876.2
78359.3
75043.7
69233.6
59640.8
45019.8
10911.8
2288.11
9071.73
31621.5
48730.1
54632.1
58518.4
60853.1
61965.3
79655.7
78136.9
74768.4
69003.1
60698.5
43728.4
11028.2
2332.82
3790.14
30877.1
42999.4
53677.3
57704.7
60216.7
61419.9
79421.1
77893.5
74582.8
69731.4
60203.4
45560.3
20694.3
2533.81
5314.74
24673.6
38982.5
49138.7
56650.7
59438.9
60765.7
79174.6
77660.7
74914.8
69356
61092.9
46436.6
21095.9
2304.14
5801.53
21263
34841.7
47024.4
53243.7
58606.5
60081.2
78922.9
77369
74661.4
69001.8
61375.5
46457.2
21374.3
2259.07
2232.82
12832.8
30367.2
43225.6
51933.3
57884.4
59527.5
78687.6
77096.7
74374
69432.9
60972.1
46692.2
25959.7
2306.96
2274.99
2394.84
26687.9
40738.7
51128.1
57460.9
59171.1
78505
76879.2
74107.9
69082.4
60417.2
45704.8
23229.8
2292.59
2325.03
2238.49
28427.4
40701.8
51057.6
57436.6
59122
78388.9
76753.5
73906.8
67869.1
59941.8
44418.7
19551.3
2283.53
2296.58
2312.53
29089.8
42526.7
51568.9
57744.3
59327.9
78316
76659.3
72982.4
67889.2
59084.4
44159.7
19933.4
2298.86
2309.81
16479.9
31884.2
45978.1
55130.4
58247.5
59701.9
78335.7
76686.3
73015.8
66770.2
58101.3
41432.9
18862.3
2274.03
5162.44
23498
39180.6
51449.9
56011.2
58829.5
60161
78414.1
76785.8
73237.7
67109.3
57138.7
42392.3
11943.7
2295.15
9971.62
28731.2
46179.7
52524.1
56780.3
59351.4
60573.8
78492
76895.2
73447.2
67491.8
57225
44476.3
9977.15
2288.95
16902.4
37893.8
47024.3
53211.5
57279.9
59705.5
60868.7
78532.3
76955.6
73569.3
67733.5
57500.9
45389.5
10037.3
2289.77
17531.4
38462.8
47508.8
53544.8
57528.9
59881.3
61014.4
82320.1
81378.4
79408.3
76478.2
70380.5
63977.6
54938.5
19427.8
52119.5
59248.9
61579.4
64139.2
65787.2
66784.7
67306
82202
81239.5
79207.4
76058.5
69660.4
61935.9
46126.2
2369.02
48522.9
57846
60891
63678.3
65433.3
66513.2
67066.2
82006.5
81016.7
78920.7
75463.1
70673
57057.6
31874.3
14158.2
26170.1
47931.8
60253
62857.2
64789
66013
66625.7
81754.3
80734.6
78536.4
75029.7
68043.8
55452.1
27526.8
2564.01
13952.3
45921.2
53784.5
61666.9
63796
65274.2
66001.3
81481.2
80412.2
78186.3
73864.9
66964.1
54317.8
28569.2
2302.02
12789.2
36587.1
48660.7
56394.4
62541.3
64361.3
65259.8
81195.6
80125.3
77426.9
73076.6
65900.1
52938.6
26977
2751.61
12618.8
30608
42814.1
53683.6
58518.2
63439
64493.2
80909.4
79779
76941.8
72447.9
65111.8
52100.6
27115.4
2271.96
2316.21
19259.4
35978.1
48596.8
56878.6
62636.6
63873.4
80652.4
79468.9
76563.3
71962.1
64271.8
51713.5
32567.2
2344.52
2347.83
2561.22
27801.5
44748
55852.2
62188.6
63519
80454.7
79232.9
76257
71474.8
63335.8
49378.6
24452.1
2293.73
2279.33
2290.34
30957.5
44654.1
55807.3
62203
63492.3
80340.3
79108.3
76054.6
70952
62725.6
47635.6
21733.2
2287.13
2313.51
2317.65
34498.5
47700.6
56564
62583.3
63756.5
80279.4
79016.3
76276.2
71088.5
62592.8
47710.7
21537.3
2302.76
2304.29
21063.9
38307.3
52443.5
60934.1
63144.4
64200.2
80321.4
79102.9
76421.6
72003.7
63606.4
49476.9
23405.3
2245.15
9554.81
32629
48196.8
59038.3
61952
63844
64734.4
80426.2
79266.3
76786.3
72687.2
66904.6
52229.3
25014.7
3946.03
22161.5
42251.4
56951.9
60396.9
62908.2
64457.5
65214.5
80527.1
79415.4
77061.6
73381.6
66255
57337.3
38227.3
3640.56
44457.4
54055
57883.8
61313.1
63512.8
64875.7
65558.8
80582.4
79502.1
77235
73809.9
67015.7
58834.5
45445.7
6121.1
46543.7
55041.9
58624.2
61776.3
63825.6
65088.8
65732.3
86132.5
86024.2
85875.4
86967
89522.1
96077.9
141820
155690
106862
84047.1
77002.1
74615.1
73480
73087.5
73000.4
86009.4
85865.5
85663.8
86510.4
88787.1
95953.1
145380
162326
106369
82944.5
76155.6
74050.9
73088.3
72800.9
72754.1
85803.1
85603.4
85357.8
85405.6
87568.2
85923.9
114027
128092
101404
76643.8
74235.7
72925
72391.5
72284.3
72308.9
85528.6
85260.7
84800.2
84559.3
81843.2
82379.9
92872.8
97072.1
80913.9
72848.5
69414.8
71457.1
71369.5
71549.8
71686.1
85225.9
84849.7
84193.9
81734.5
80211
76482.9
71131
37620.7
58610
61309.6
63693.1
66582.6
70042.3
70629.1
70955.8
84922.3
84496.5
82442.2
80609.1
76875.7
71728.6
65968.1
18164.4
39428
51435.1
56941.4
63821.8
66085.2
69752.6
70232.4
84636.1
84146.3
81840
79747.2
74713.7
68081.2
52655.3
2349.39
16133.9
35713.9
48412
58357.5
64496.5
69031.5
69649.2
84392.7
83860.6
81400.5
78272
73374.7
65601.1
54962.2
2295.6
2289.65
2163.57
35382.7
53628.4
63527.3
68650.3
69336.5
84211.2
83649.9
81098.7
77782.6
72326.9
62672.5
40229.9
2312.49
2321.07
2162.91
31745.6
52965.5
63473.7
68678.6
69331.3
84114.6
83550.5
80940.3
78224.7
71861
61078.4
35081.5
2281.08
2296.98
20991.4
43412.8
57085.4
64256
69037.9
69598.9
84069.1
83493.6
82338.8
78374
72731.8
62230.9
37078
2289.41
2299.94
35892.8
51272.3
62690.2
68671.5
69551.6
70018.7
84127.6
83635.5
82613.1
81285.5
75855.5
71074.2
51565.1
5565.92
27797.4
52919.8
62740
68934.4
69611.2
70229.6
70529.4
84248.8
83853.2
83152
82356.5
83231.4
77128.3
95398.1
110455
84934.5
67252.7
70769
70450.4
70589.8
70823.3
70998.3
84356.2
84033.3
83435.3
83546
84585.7
90350.1
134843
145952
97957.8
77793.4
72805
71576.6
71194.6
71238.6
71335
84415.7
84141.2
83633.8
84080.3
85758.6
91444.7
135853
155725
100714
79277.5
73736.3
72111.1
71525.8
71454.9
71507.7
90357.9
90912.7
92047.6
94967.3
101700
105345
126114
130732
110174
97224.7
88800.3
83628.1
80721.5
79335.4
78764.5
90259.5
90782.3
91921.3
94878.9
101564
106078
128647
136330
110528
97078.8
88371.4
83223.1
80391.9
79082.7
78547.1
90085.9
90522.7
91675.7
94012.9
99702.3
105475
120783
143555
112338
96804.6
86312.9
82096.4
79726.8
78606.4
78151.8
89835.9
90193.7
91095.3
93174.8
94817
103759
123110
153204
116181
93443.3
83868.2
80514.1
78816.2
77964.2
77611.6
89547.6
89761.3
90328.8
90272.4
92788.7
97854.7
114200
163281
109667
87583.1
79764
77306.3
77620.7
77149.1
76972.3
89284.6
89385.2
88454.3
88966.3
89515.7
92494
105479
137228
94188.9
79044.3
74620.1
75270.3
74832.9
76448.1
76398.1
89060.2
89100.4
87979.3
88141.9
86943.5
88165
92201.2
97217.5
66928.2
67478.8
69233.2
71794
73808.9
75951.5
75979.6
88883.7
88906.7
87637.6
86567.2
85655.1
84849.2
76031.1
2217.25
20581.2
44853.1
63835.5
68954
73302.2
75715.9
75766.7
88752.4
88766.8
87445.9
86276.6
85157.3
84590.2
88439.2
2122.08
2158.6
38358.4
63613.8
68950
73357
75759.5
75780.1
88681.3
88720.3
87356.8
87288.6
85148.9
84734.8
80112.6
7611.78
2258.39
54128
67748.1
71666.6
73868.5
76036.5
75994.1
88628.3
88747.1
89056.9
87646.3
86668.4
86286.7
88553.6
107827
66994.6
71086.9
71943.5
75036.4
76847.6
76456.3
76309.5
88663.4
88858.2
89343.5
90627.3
90244.3
95279.8
104795
150794
98369.5
82676.1
79307.1
78890.2
77566
76972.1
76708.8
88752.5
89032.7
89821.8
91425.6
95629.2
97890
109363
125504
102579
89832.2
83533.1
80159.6
78319.4
77434.2
77087
88819.1
89191.3
90002.6
92405.4
97941.6
101724
122687
124474
104506
92702.9
85585.8
81132.6
78821.7
77778.6
77355.4
88852.3
89271.4
90129.8
92622.8
98633.4
102102
122081
125712
105066
93791.2
86186
81528.4
79079.1
77950.6
77495.3
93806.8
94475.3
95712.6
97182.3
101990
100537
100154
102182
98103.4
96866.6
92415
88619.5
86008.8
84497.4
83780.3
93772.5
94440.9
95723.2
97507.7
102400
101536
101879
103498
98998.2
97315.4
92516.5
88525
85841.3
84335.8
83627.2
93703.1
94316.1
95704.3
97737.1
101665
103763
106977
113334
103409
97374.7
91777.5
88010.3
85424.8
83998.6
83341.8
93577.2
94175.3
95489.8
97840.5
99845.3
105190
112960
121397
109811
97763.9
91240.7
87252.7
84873.4
83546.1
82955.6
93401.4
93907
95158.1
95924.9
99399.9
104518
114635
123372
112010
98336.2
89973.7
85718.9
84125
82965.9
82497.4
93245.7
93661.5
93812.5
95478.3
97744.4
103071
113769
125508
111152
96617
88565.6
84933.4
82681.7
82469.8
82103.3
93136.7
93522.3
93643.1
95264.7
96739.2
102331
113470
124874
110596
97112.2
88592.6
84143.9
82328
82201.7
81860.3
93055.5
93444.3
93547.4
94274.5
96576.9
102142
112703
150136
120553
111356
93206.7
84506.9
82310.7
82115
81763
92978.4
93380.8
93501.6
94255.4
96803.9
103379
114061
114781
76796.4
174104
99980.8
85532.9
82530
82178.5
81795.4
92914.9
93348.4
93454.4
95230.2
97022.3
104819
124728
184478
135421
114382
94947.8
85651.7
82784.1
82371.7
81944.5
92840.3
93379.5
94634.3
95269.4
97713.4
104491
122137
161295
131732
103549
91267.5
85796.5
84007.1
82710.2
82154.4
92789.1
93346.9
94562.4
96979.6
98717.7
105580
116842
136164
119080
100026
90754.4
86870.5
84331.2
83012.8
82403.4
92757.9
93314.6
94582.4
96503.9
99937.9
103147
110479
118715
106230
97025.4
90879.2
87073.7
84634.8
83253.6
82627.6
92712.8
93317.7
94459.9
96189.6
100701
99988.9
101703
102072
97822.8
95427.5
91208.5
87286.2
84837.9
83435.1
82777
92678.4
93289.9
94400.3
95826.5
100237
98931.2
98517
98769.4
95820.1
95211.4
90936.7
87304.4
84913.7
83509.8
82846
96079.4
96472.3
97387.6
97348.4
99618.9
98863.7
97248.4
100460
96119.4
95723.5
93021.2
91035
89396.1
88274.4
87684
96117.9
96553
97482.3
97776.1
100195
99503.4
98122.6
100216
96952
96269.9
93386
91156.9
89389.1
88221.3
87612.1
96187.3
96636
97663
98627.1
100830
101771
103446
106280
101991
97764.8
93863
91259.6
89300.7
88082.9
87473.4
96254.1