/*--------------------------------*- C++ -*----------------------------------*\
| =========                 |                                                 |
| \\      /  F ield         | OpenFOAM: The Open Source CFD Toolbox           |
|  \\    /   O peration     | Version:  v2012                                 |
|   \\  /    A nd           | Website:  www.openfoam.com                      |
|    \\/     M anipulation  |                                                 |
\*---------------------------------------------------------------------------*/
FoamFile
{
    version     2.0;
    format      ascii;
    class       volScalarField;
    location    "0.016";
    object      p_rgh;
}
// * * * * * * * * * * * * * * * * * * * * * * * * * * * * * * * * * * * * * //

dimensions      [1 -1 -2 0 0 0 0];


internalField   nonuniform List<scalar> 
449343
(
107573
107697
107899
108084
108146
107848
107013
105569
103568
101226
98837.1
96677.9
94941.8
93739.8
93127.6
107571
107695
107898
108084
108147
107850
107017
105576
103579
101240
98852.1
96691.9
94953.7
93749.6
93136.2
107566
107691
107896
108083
108149
107853
107023
105586
103597
101264
98879.6
96717.9
94975.3
93767.1
93151.3
107558
107684
107891
108080
108149
107853
107028
105597
103617
101294
98914.8
96751.2
95002.6
93788.4
93169.2
107548
107675
107884
108074
108146
107849
107027
105603
103635
101322
98950.2
96784.7
95028.8
93807.5
93184.4
107533
107661
107872
108064
108136
107839
107020
105604
103645
101343
98976.1
96808.6
95045.6
93817.5
93190.6
107514
107643
107854
108047
108118
107820
107002
105589
103639
101347
98981.8
96814.2
95045.3
93811.9
93181.9
107491
107620
107831
108022
108091
107792
106970
105556
103606
101320
98957.2
96789.7
95019.4
93784.9
93154.5
107464
107592
107802
107992
108057
107754
106932
105513
103560
101266
98902.1
96736.2
94969.5
93737.9
93109.1
107436
107562
107770
107958
108018
107713
106886
105461
103497
101192
98826.1
96660.9
94901.1
93675.7
93050.3
107408
107533
107737
107922
107980
107672
106839
105405
103429
101113
98740.5
96577.3
94825
93607
92985.7
107382
107506
107708
107890
107945
107637
106799
105357
103368
101040
98659.8
96497.8
94752.1
93540.8
92923.4
107362
107484
107684
107864
107917
107608
106766
105317
103318
100980
98593.2
96431.8
94691.1
93485
92870.6
107348
107469
107667
107845
107897
107587
106742
105289
103283
100937
98546.3
96385.4
94647.9
93445.1
92832.6
107341
107461
107659
107836
107887
107576
106730
105274
103264
100915
98522.2
96361.5
94625.6
93424.4
92812.9
107440
107611
107913
108250
108483
108405
107701
106187
103928
101243
98553.9
96196.6
94351.5
93096.9
92464.2
107437
107608
107912
108251
108485
108408
107706
106196
103942
101261
98573.6
96213.9
94365.2
93107.7
92473.5
107432
107604
107910
108252
108489
108412
107712
106210
103966
101296
98611.7
96247.1
94390.9
93127.3
92490
107423
107598
107906
108251
108490
108411
107714
106218
103992
101340
98663.3
96291.9
94424.2
93151.7
92509.8
107412
107588
107900
108250
108490
108401
107713
106229
104009
101386
98721.4
96340.7
94458.2
93174.5
92527.1
107397
107575
107891
108244
108486
108395
107705
106234
104035
101424
98769.1
96381.1
94482.9
93187.2
92534.8
107377
107557
107875
108229
108466
108382
107690
106224
104038
101443
98801.6
96400.1
94487.7
93184.6
92526.8
107353
107532
107850
108205
108439
108351
107653
106139
103998
101414
98780
96377
94461.2
93156.4
92498
107325
107504
107820
108171
108403
108311
107613
106139
103948
101353
98713.1
96314.9
94406.1
93105.5
92449.8
107296
107472
107784
108131
108363
108261
107559
106076
103868
101257
98603.7
96220.1
94327.8
93037.3
92386.9
107267
107441
107748
108089
108319
108216
107512
106014
103783
101156
98492.8
96117.3
94241.2
92962.8
92318.3
107242
107413
107716
108052
108280
108184
107471
105960
103724
101067
98390.3
96022.5
94160
92892.1
92252.8
107222
107391
107691
108023
108249
108157
107443
105926
103672
100996
98309.7
95946.6
94093.6
92833.3
92197.9
107208
107376
107673
108003
108228
108136
107420
105898
103633
100946
98254.5
95894.5
94047.3
92791.7
92158.8
107201
107368
107664
107993
108217
108124
107408
105882
103612
100920
98227.1
95868.4
94023.8
92770.3
92138.6
107096
107374
107900
108595
109290
109764
109456
107764
104813
101230
97806.8
95001.4
92920.6
91554.8
90880.1
107092
107371
107899
108597
109295
109770
109463
107778
104836
101260
97837.1
95025.6
92938.3
91567.8
90890.8
107085
107365
107898
108602
109305
109780
109472
107804
104877
101324
97901.8
95074.9
92972.3
91592
90910.3
107074
107357
107896
108608
109317
109782
109457
107824
104904
101405
97998.5
95147.2
93019
91623.1
90934.2
107060
107347
107893
108615
109326
109761
109410
107787
104913
101517
98113.9
95231.1
93070.3
91654
90955.9
107042
107334
107890
108619
109341
109743
109391
107811
104979
101612
98238.8
95311.2
93111.4
91674.3
90966.9
107020
107314
107873
108614
109318
109745
109378
107811
105004
101650
98375.9
95361
93129.6
91674.1
90959.2
106994
107289
107848
108590
109294
109722
109363
107759
104959
101619
98355.7
95337.9
93101.7
91644
90927.5
106964
107257
107814
108549
109246
109660
109282
107702
104882
101536
98266.3
95257.2
93033.8
91584
90872.2
106933
107222
107773
108494
109203
109592
109214
107610
104759
101401
98029.1
95115.2
92929.8
91502.7
90800.5
106904
107188
107728
108440
109138
109550
109174
107529
104632
101235
97837
94967.4
92821
91415.6
90723.3
106878
107158
107690
108392
109086
109527
109180
107523
104587
101084
97680.5
94838.8
92721.9
91335
90651
106859
107136
107662
108356
109046
109501
109172
107487
104544
100984
97561.9
94739.8
92644
91269.9
90591.6
106846
107121
107643
108332
109018
109476
109153
107452
104498
100914
97486.6
94675.8
92591.7
91224.8
90550
106840
107114
107634
108321
109005
109464
109141
107435
104472
100880
97451.8
94645.1
92565.7
91202
90528.8
106414
106846
107711
108982
110529
112055
112889
110848
106383
100916
96253.7
92833.5
90479.7
89005.9
88298.9
106407
106841
107708
108984
110537
112063
112892
110870
106417
100964
96298.8
92865.9
90501.6
89021.3
88311.2
106395
106832
107706
108994
110559
112089
112915
110930
106507
101093
96405.7
92935.3
90545.1
89050.5
88333.7
106378
106820
107705
109013
110591
112131
112755
110999
106520
101313
96593
93044
90607.4
89089.1
88361.9
106357
106805
107703
109029
110634
112085
112025
110770
107387
101621
96835
93186.9
90679.3
89128.5
88387.9
106333
106790
107716
109090
110711
111303
111925
110801
107554
102973
97141
93334.1
90743.9
89154.8
88401.1
106305
106768
107702
109086
110036
111338
111905
110805
107601
103087
98458.6
93408.7
90770.2
89155.6
88391.4
106274
106740
107679
109065
110008
111326
111900
110686
107573
103081
98424.5
93377.2
90744.9
89121.9
88352.4
106242
106704
107636
109015
109962
111261
111807
110664
107473
102967
98326.6
93269.2
90649.5
89045.8
88287.7
106211
106664
107581
108942
110550
111157
111720
110570
107318
102785
96829.4
93071.3
90515
88947.7
88204.6
106182
106627
107520
108833
110415
111836
111757
110483
107157
101242
96464
92851.1
90375.2
88846.6
88117
106160
106598
107475
108768
110325
111833
112428
110627
106112
100902
96194.6
92669.4
90256.1
88755.1
88036.9
106144
106578
107444
108720
110268
111777
112564
110559
106115
100690
96004
92544.1
90167.2
88683.6
87972.8
106134
106565
107425
108691
110230
111740
112545
110504
106036
100569
95899.4
92468.5
90109.9
88635.5
87928.9
106130
106559
107417
108679
110215
111726
112541
110485
106006
100527
95856.5
92434.1
90082.2
88611.6
87906.9
105196
105798
107052
109052
111863
115380
119116
116278
108738
99513.8
93176.7
89283.1
86828.7
85380.2
84714.2
105184
105788
107045
109052
111871
115392
119115
116297
108791
99588.3
93235
89319.2
86852
85396.3
84726.5
105162
105769
107034
109059
111910
115446
119159
116364
108971
99786.2
93380.3
89398.3
86899.4
85427.3
84749.5
105132
105745
107027
109105
112056
115620
116851
116536
110698
100450
93727.9
89546.6
86969.2
85468.5
84778.2
105095
105712
107016
109136
112126
114120
116875
116592
111026
102986
94149.1
89730.4
87055
85509.5
84803.7
105057
105691
107045
109314
111236
114307
116942
116611
111227
103511
96560
89975.4
87118.4
85538.9
84813.9
105014
105648
107003
108687
111279
114384
116013
115991
111664
104665
96932.5
91920.2
87098.1
85516
84793.5
104979
105618
107029
108659
111282
114376
116002
115960
111706
104746
97028.7
91963.7
87165.3
85465.9
84748.7
104942
105574
106928
108606
111219
114299
115890
115829
111507
104562
96825.9
91823.4
86942.6
85378.5
84667.2
104916
105546
106889
109144
111070
114125
115830
115651
111217
103214
96343.5
89605.9
86819.1
85282.8
84577
104895
105510
106807
108909
111870
113903
116531
116106
110522
102713
93611.2
89279.4
86672.4
85168.6
84482.1
104883
105491
106762
108823
111748
115274
116487
116142
110422
99883.6
93206.3
89077.1
86544.1
85073.8
84398.5
104876
105480
106737
108749
111583
115094
118764
116020
108512
99299.3
92896.2
88933.4
86456.7
85002.3
84333.8
104874
105474
106725
108721
111529
115040
118719
115924
108364
99138.7
92775.7
88861.9
86402.8
84955.4
84290.8
104873
105473
106720
108712
111513
115017
118730
115898
108329
99083.2
92729.9
88830.6
86377.6
84932.9
84269.6
103200
103923
105488
108183
112499
119304
124798
129936
115972
94646.7
87361.3
83796.2
81716.6
80612.1
80140.9
103180
103903
105471
108172
112503
119314
124795
129942
115996
94714.6
87414.3
83824.8
81735.9
80625.5
80150.9
103141
103865
105435
108142
112503
119362
124794
129974
116078
94847.6
87499.5
83866.2
81773
80651.1
80169.3
103088
103817
105405
108164
112840
117160
124875
130152
116321
99662.6
87865.6
83929.6
81825.1
80686
80191.8
103019
103743
105326
108180
111590
117407
125180
127876
118010
100874
91506.9
84084.5
81851.8
80705.8
80207.6
102955
103672
105331
107731
111646
116440
123431
127008
118588
103794
92156.3
86756.7
81884.1
80699.3
80204.4
102883
103587
105272
107722
111730
116434
122518
127167
119561
105325
94210.7
86986.5
81823.6
80638.3
80164
102830
103521
105248
107733
111050
115880
122474
127157
119705
105491
94275.1
87008.6
83808.8
80530
80095
102799
103500
105175
107657
110992
116275
122353
126903
119270
105073
93971
86751.7
81585.2
80462.6
80009.4
102790
103504
105155
107529
111543
116239
122192
126602
118636
104364
93476.5
86432.7
81487.8
80382.9
79919.2
102786
103507
105083
107912
111295
117139
122923
127316
117556
102540
91104.6
83468.6
81367.4
80292.7
79825.5
102797
103522
105097
107843
112486
116825
124487
129678
115799
99325.2
87188.5
83342.1
81311.4
80219.1
79747.1
102809
103531
105094
107789
112134
118967
124390
129533
115639
94261.2
86922.3
83316.7
81255
80157.7
79688.8
102820
103541
105103
107796
112116
118916
124368
129518
115570
94216.8
86892.8
83302
81220.8
80120.2
79651.8
102826
103547
105109
107797
112106
118906
124393
129531
115565
94186.8
86865.9
83287.1
81204.5
80102.7
79634.2
100213
100909
102469
105326
110242
117019
133427
163151
119565
86660.1
76801
75643.1
74987.3
74785.4
74733.5
100182
100876
102432
105286
110205
116990
133377
163112
119476
86649.2
76816.7
75649.3
74997.6
74792.5
74738.4
100119
100805
102348
105173
110044
116902
133217
163017
119513
86773.7
76772.9
75642.9
75015
74803.7
74746.8
100029
100706
102231
104893
109351
117158
133129
162817
119624
87235
80496.2
75484.3
75026.4
74816.1
74755.9
99907.6
100555
101978
104886
109281
116174
130048
162595
121211
91949.2
80791.5
78075.6
74943.2
74806.6
74754
99784.5
100356
102375
104861
108942
116016
128491
157570
127345
95377.5
83904.7
78311.4
76903.4
74747.3
74732.1
99683
100242
102301
104775
108871
115488
128214
157480
130112
97334
85949.4
80264.9
76900.6
74711.2
74687.7
99600.9
100158
102298
104729
108788
115350
127989
157252
131534
98100.5
86180.9
80293.2
76896.5
74632.7
74575.4
99581.8
100139
102203
104698
108753
115279
127868
156814
129385
96709.8
85563.5
79998.6
76676.4
74507.7
74502.9
99586.8
100156
102179
104609
108725
115286
127912
156674
126826
94669
84574.2
79504
76456.2
74376.6
74396.5
99630.5
100273
101687
104579
108930
115768
128112
156874
125444
93321.7
82524.1
77393.6
74354.7
74317.5
74305.5
99684.9
100358
101873
104527
108842
116629
129658
162065
119249
90847.1
79714.5
74777.3
74419.6
74270.5
74239
99726.2
100410
101948
104761
109622
116436
132714
162389
119038
86271.7
76121
75007.4
74415.4
74234.1
74192.9
99757
100449
102003
104853
109765
116531
132861
162599
119072
86195.1
76248.5
75059.7
74409.9
74214.2
74166.6
99772.6
100468
102026
104883
109797
116562
132955
162700
119178
86212
76270.6
75075.3
74406.7
74204.5
74154.7
96183.1
96595.9
97518.9
99229.3
102080
108694
116076
113811
27310.3
56012.7
61757.9
65069.3
67114.4
68377.7
68949
96141.4
96550.1
97465.9
99163.2
102018
108620
116005
113667
25137
55853.5
61718.1
65066.5
67122.3
68379.1
68947.5
96055.2
96448.7
97346.2
99029.1
101827
108428
115799
113402
25029.4
56002.8
61751.7
65151
67155.6
68384.5
68947
95930.1
96289.7
97148.7
98659.3
102997
107878
115355
112930
26750.8
56622.4
63494.7
65373.9
67236.5
68401.6
68950.6
95760.6
96081.8
96851
99681.8
102599
108087
115848
112171
28231.6
61045
65731
67109.5
67394.5
68445.9
68953.5
95571.8
95868.9
97857.3
99439.2
102938
108142
115282
111062
34414.6
64244.7
67979.2
67582.5
68796.1
68517
68940.1
95453.9
95739.4
97730.3
99253.2
103067
107877
114773
109724
58030.5
69122.5
69454.6
69084.2
68819.9
68529.9
68915.5
95365.1
95639.2
97622.7
99820.4
102955
107693
114419
108642
66499.3
70943
69887.3
69830.4
68810.7
68456
68795.9
95331.3
95616.1
97570.9
99759.8
102896
107629
114364
108798
50904.5
67234.4
68845.7
69428.5
68584.3
68301.3
68698.3
95328.9
95626.6
97585.8
99103.9
102889
107691
114591
109748
32846.4
62825.2
67265.7
68166.5
68293.7
68099.1
68555.8
95425.5
95737.1
96489.1
99224.1
102688
107856
114987
110819
28051.6
60548
65992.1
66393.7
66732.6
67889
68437.5
95512.8
95869.6
96724.9
98222.3
102421
107059
114431
111843
26199.5
57764.8
62578.4
64566.5
66539.1
67775.6
68356.1
95580.9
95972.2
96868.4
98559
101355
107691
115027
112466
25038.4
55441.2
61030.3
64431.5
66471.5
67732.1
68311.2
95630.1
96038.1
96953.8
98652.3
101515
108068
115371
112879
25004.9
55414.6
61118.5
64408.1
66455
67717.9
68292.3
95654.1
96067.3
96992.5
98709.3
101572
108186
115529
113099
25549.1
55559.5
61207.7
64437.8
66455.8
67714
68286.2
91385.9
91277
91028.7
90633.9
90495
94333.6
97984.1
111306
8633.62
34724.6
48052.7
55168.6
59776.9
62443.3
63633.8
91339.6
91226.3
90973
90571.1
90445.8
94260.8
97912.7
111086
3013.34
34517.6
47982
55169.5
59779.2
62435.2
63621.9
91246.6
91122.6
90860.1
90486.6
90314.7
94079.2
97718
110884
6196.2
34665.5
48147.5
55298.9
59817.3
62435.7
63607.5
91115.7
90959.9
90683.5
90418.3
92943
93906.9
97341.7
110561
2526.64
35261.8
48545.5
55684.8
59950.8
62467.6
63603.2
90951.4
90771.8
90541.5
92261
92808.9
95525
98129.6
110204
2383.23
35889.3
49779.3
56726.7
60171.1
62556.6
63614.3
90771.9
90654.7
91902.2
92051.4
93846.3
96091.4
97742
109381
6171.27
38316.9
51200.5
57148
61015.5
62637.7
63611.3
90659
90552.5
91717.1
91925.4
94319
95840.1
97380.3
108770
2397.91
41239.8
52225.9
57902.1
61074.1
62626.1
63563.7
90560.9
90448.1
91583.9
92746.9
94177.9
95664.8
97130.4
108187
2288.61
41276.9
52415.3
58173.2
61029.5
62535.8
63446.7
90507.3
90398.3
91515.5
92676.1
94106.3
95588
97051.3
108031
2309.68
39163.9
51679.3
57850.6
60820.7
62367.4
63327.7
90477.9
90360.8
91523.6
91735.9
94099.2
95622.6
97155
108350
2352.9
36624.1
50451.4
57056.4
60525
62162.4
63176.5
90530.9
90341.3
90097.7
91710
93548.8
95778.6
97407
108936
4644.65
35406.3
49440
55942
59431.1
61927
63024.6
90599.4
90436.3
90144.4
89890.6
92419.5
93486.3
96872.9
109737
2466.83
34731.6
48008.6
54810.1
59164.1
61755.4
62922.1
90664.9
90536.4
90268.3
89899.9
89761.6
93490
96997.5
110052
2669.4
34274.1
47389.2
54500.5
59040.8
61689.3
62877.7
90716
90601.4
90350.7
89964.7
89868.4
93672.3
97290.9
110365
2943.55
34158.3
47341.9
54431.2
59016.6
61676
62868.8
90742.7
90634
90391.3
90015.5
89909
93797.2
97449.3
110552
3022.74
34284
47460
54453.9
59020.6
61679.4
62871
86525.3
85841.6
84406.1
82057.4
81550.4
80045.9
82288.3
2158.78
26740.1
41018.5
49293.1
54947
58294.7
59843.8
86478.3
85790.8
84351.1
81998.8
81492.4
79982.5
82231.6
2192.03
26471.2
40945.6
49278
54919.5
58260.6
59807
86390.2
85699.9
84246.2
81897.5
81423.1
79878.4
82080
2208.08
26349
41084.8
49307.7
54886.4
58212
59744.9
86275.7
85575.8
84101.4
81900.5
81555.7
79678.9
81785.6
2225.21
26744.7
40058.8
49552.6
54905.8
58171.1
59674.1
86149.5
85442
84070.4
83847.2
81936.4
81578.1
82267.4
2225.04
25277.1
40027.7
49308.5
54961.6
58165.5
59607.2
86013.1
85410.5
85364.6
83939.4
83055.6
82384.7
82067.4
2263.98
26366.4
40269.3
49368.3
54843.4
58041
59523.5
85903.5
85309.5
85242.1
83897.3
83690.7
82291.7
81927.7
2202.12
27132.4
40343.8
49233.4
54774.7
57888
59388.5
85789.3
85196.3
85115.8
84617.5
83678.3
82190.6
81820.7
40873
25951.7
40063.3
49049.7
54593.5
57743.4
59230.9
85712.5
85109.5
85020.3
84528.7
83575.6
82075.7
81693.9
11593.8
31995.3
40274.1
48864.7
54434.5
57596.1
59116.2
85641.1
85039
84973.9
83603.7
83396.9
81972.8
81581.8
2016.35
26697.9
39626.6
48598.2
54283.6
57496
59020.3
85620.7
84894.6
83494.8
83285.5
82574.4
81931.5
81618.6
9854.11
24516.6
38901.3
48325.8
54117
57437.4
58926.2
85632.4
84917.9
83409.5
81219.8
80930.8
79222.4
80911.7
2345.82
25075.7
39324
48549.9
54001.5
57349.9
58888.5
85670.6
84970.5
83504.5
81167.1
80700.5
79242.2
81439.4
2373.67
25973.4
40224.7
48379.4
53982
57346.9
58902
85712.3
85019.5
83578.9
81257.5
80811
79401.6
81710.3
2388.38
26122.4
40186.7
48400.2
54022.8
57377.5
58935.7
85737.6
85050.7
83618.4
81303.4
80826.5
79476.6
81831.6
2429.4
26275.5
40304.7
48438.1
54055
57404.2
58960.1
82512.2
81316
78787.7
74294.6
71625.5
63351.5
58280.9
3617.49
2176.35
26549.4
39509.7
47801.7
53409.6
56754
58345.4
82459.6
81257.5
78716.5
74202.5
71541.1
63253.8
58225.5
2378.67
2194.42
26480.3
39364.4
47739.3
53322.6
56671.5
58264.2
82362.9
81155.6
78581.1
74012
71391.8
63047.1
58109.4
2351.11
2209.99
22634.4
39371.4
47595.8
53157.3
56518.9
58109.7
82239.4
81030.3
78376.8
73811.9
71152.3
62714.6
57923.2
2284.96
2229.23
23166.9
36542.2
47466.5
52932.8
56308
57898.6
82111.1
80876.9
78173.7
76488.3
70638.3
65481.6
59585
2401.2
2241.18
21187.9
35344.8
45592.2
52645.4
56075.9
57653.3
81971.8
80727.3
79871.2
76193.1
72490.7
66711.7
59605.3
2301.27
2254.19
22064.8
34581
45127.1
51342.7
55699.9
57379.4
81829.2
80569.2
79715.6
75911.4
73212.1
66664.5
59775.4
2284.38
2303.07
20548.8
33504.8
43873.3
50950.1
55372.4
57105.5
81684
80422.3
79543.5
77155
73053.6
66637.7
59982.2
2255.61
2184.42
11634.1
32300.7
43060.6
50624.9
55144
56890.9
81579.8
80299.4
79419.3
77027.8
72890.1
66453.4
59839.6
18923.9
2250.62
20018.6
32704
42894.5
50490.6
55034.1
56796.9
81501.4
80228.6
79369.2
75504.1
72774.2
66148
59139.1
2310.4
2314.46
18143.2
32621.9
43230
50499.9
55071.7
56805.9
81446.4
80177.7
77370.3
75708.5
71859.5
66051.7
58968.4
2293.73
2274.93
19047
32893.3
44109.7
51615.5
55226.6
56868.7
81438.2
80197.1
77470.9
72850.3
70120.7
61906.9
57266
2390.95
2348.52
20872.8
35295.2
46203.3
51845.1
55344
56992.3
81474.4
80242.2
77626.1
73033.2
70381.9
62293.7
57669.4
2383.71
2380.04
22370.8
38210.5
46426.2
52068.1
55504.3
57135.6
81520.3
80299.7
77732.9
73219.1
70642.2
62591.5
57975.4
2561.4
2391.49
25910.3
38340.6
46633.5
52243.2
55635.4
57256.3
81549.4
80337.6
77789.9
73301.8
70744.6
62711.3
57983.9
2887.51
2413.35
25966.3
38521.2
46728.2
52337.1
55708.9
57322.8
80152.7
78609.8
75302.5
69365.5
58833.1
47952.5
21017.3
2306.93
2181.55
30222.6
42363.4
49924.3
54941.6
57897.1
59304.7
80085.7
78533.3
75196.4
69219.5
58606
47687.2
20920.4
2269.39
2195.45
30008.8
42112.4
49761.6
54771.6
57751.3
59168.9
79962.2
78398.2
75015.5
68997.5
58229
47050.5
20775
2290.27
2213.38
24284.1
41798.5
49424.7
54441.2
57466.6
58904.5
79798.6
78236.3
74770.4
68724
62110.5
46427.4
20835.4
2288.44
2228.78
24374.6
37325.7
48852.8
53923.5
57037.6
58521.9
79624.1
78048.2
74575.5
70831.6
61872.3
49990.5
26875.9
2269.67
2936.78
20662.3
34779.9
45453.3
53231.8
56519.6
58059
79439.7
77848.8
75846.9
70609.9
63813.7
51799.8
27713.2
2292.01
2310.59
19068
32400.9
44233.5
50755.7
55904.1
57562.2
79249.7
77632.3
75701.9
70345.8
64592.2
51864.6
28214.2
2261.81
2273.43
9161.21
29568.3
41708.8
49927.1
55378.8
57137.3
79067.2
77434.1
75495
71433.5
64362.8
51924.1
28760.1
2289.61
2173.95
2289.92
27517.8
40169.9
49394
55059.3
56856.8
78934.7
77274.6
75312.6
71212.2
64076.3
51561.5
28691.9
2276.02
2184.78
2464.99
27623.2
39976.2
49286.7
54995.2
56796.8
78848.7
77188.7
75195.8
69665
63826.3
50911.1
27022
2313.39
2317.41
9073.63
28331.4
41018.5
49534.3
55179.6
56927.1
78795.4
77149
73468.6
69735.1
62730.2
50695.2
26799
2310.05
2309.81
16204.5
30359.5
43248.4
52013.9
55544.8
57178.7
78813.6
77181.4
73557.5
67320.2
60747.4
45300.6
21598.3
2257.18
2837.02
20363.9
35209.7
47234
52608.1
55925.6
57501.7
78881.2
77259.2
73766.8
67627.6
56863.5
45897.7
20935.8
2288.53
2393.58
23165.2
40152.1
47914.7
53122.2
56292.9
57803.6
78951.2
77350
73928.4
67870.5
57263.3
46531.4
20804.1
2285.37
2400.11
28932.6
40642.6
48346.4
53469
56552.8
58027.6
78993.6
77406.5
74023.8
68014.1
57473.7
46870.4
20689.1
2298.47
2423.05
29207.1
40959.1
48556.8
53647.9
56688.8
58145.6
80014.7
78527
75313.7
69696.6
59649.4
47765.2
10673.8
2291.64
17750.5
40548.5
49589.8
55402.4
59185.4
61369.1
62416.7
79930.4
78430.2
75172.4
69461.6
59397.1
46701.2
9736.07
2227.31
18469.8
40181.6
49227.9
55114.1
58925.3
61161.2
62229.8
79778.1
78261.2
74945.6
69135.5
59542.7
44916.8
10808.8
2286.68
8968.74
31518.5
48632
54534
58420.3
60755
61867.2
79577.2
78058.4
74689.9
68924.7
60615.1
43645
10944.8
2328.5
3704.44
30793.7
42916
53598.8
57626.2
60138.2
61341.4
79362.2
77834.6
74523.9
69667.6
60139.6
45494.1
20626.9
2532.25
5247.29
24606.1
38916.3
49075
56591.9
59380
60706.8
79135.3
77621.5
74870.7
69311.9
61046.3
46388.8
21048
2264.26
5753.7
21215.2
34793.8
46980.3
53199.5
58567.2
60042
78903.2
77349.4
74636.9
68977.3
61347.3
46429
21346.1
2256.23
2232.07
12804.6
30339
43198.6
51908.8
57864.8
59507.9
78687.6
77096.7
74369.1
69425.6
60963.5
46683.6
25951.1
2306.82
2274
2390.02
26679.3
40730.1
51123.2
57460.9
59171.1
78524.6
76898.9
74122.6
69094.7
60428.2
45715.9
23240.8
2293.59
2327.45
2240.62
28438.5
40712.8
51072.3
57456.2
59141.7
78428.1
76792.7
73941.2
67903.4
59972.5
44449.4
19581.9
2285.28
2298.01
2334.06
29120.4
42558.5
51603.3
57783.5
59367.2
78374.9
76718.1
73041.3
67943.2
59135.9
44210
19983.7
2311.08
2346.49
16530.2
31934.4
46032
55189.3
58306.4
59760.7
78414.2
76764.8
73094.3
66848.7
58174.9
41506.5
18933.5
2286.06
5232.33
23569.1
39254.2
51528.3
56089.6
58908
60239.5
78512.2
76883.9
73335.8
67207.4
57236.8
42485.5
12036.8
2298.03
10064.8
28824.4
46277.8
52622.2
56878.4
59449.5
60671.9
78609.8
77013
73565
67609.5
57342.7
44594
10090
2291.24
17020.1
38011.5
47142
53329.2
57397.6
59823.3
60986.4
78669.7
77092.9
73706.7
67870.8
57638.3
45526.9
10169.8
2290.96
17668.8
38600.1
47646.2
53682.1
57666.3
60018.6
61151.8
82182.8
81241
79270.9
76340.9
70243.2
63840.3
54801.2
19290.5
51982.1
59111.6
61442
64001.9
65649.8
66647.3
67168.7
82084.2
81121.8
79089.7
75940.8
69542.7
61818.1
46008.5
2275.31
48405.1
57728.3
60773.3
63560.5
65315.5
66395.5
66948.5
81908.4
80918.6
78822.6
75365
70574.9
56954.6
31771.3
14055.3
26067.1
47828.8
60154.9
62759.1
64690.9
65914.9
66527.6
81675.8
80656.1
78458
74951.3
67960.4
55368.7
27443.4
2479.09
13866.4
45837.8
53701.1
61588.4
63717.6
65195.7
65922.8
81422.3
80353.4
78127.4
73801.1
66900.3
54251.5
28501.8
2237.38
12721.7
36519.7
48594.4
56330.6
62482.5
64302.4
65201
81156.3
80086.1
77382.8
73032.4
65853.5
52890.8
26929.2
2704.1
12571
30560.2
42766.3
53639.5
58474.1
63399.7
64453.9
80889.8
79759.4
76917.3
72423.4
65083.6
52072.4
27087.2
2268.78
2314.46
19231.2
35949.9
48569.9
56854
62617
63853.8
80652.4
79468.9
76558.4
71954.7
64263.2
51704.9
32558.6
2339.87
2346.55
2553.88
27792.9
44739.4
55847.3
62188.6
63519
80474.4
79252.5
76271.8
71487.1
63346.9
49389.6
24463.1
2294.64
2279.75
2295.89
30968.5
44665.1
55822
62222.6
63511.9
80379.5
79147.5
76088.9
70986.4
62756.2
47666.3
21763.9
2289.68
2318.54
2343.58
34529.1
47732.5
56598.4
62622.6
63795.7
80338.3
79075.1
76335.1
71142.4
62644.3
47761
21587.6
2308.34
2320.76
21114.1
38357.6
52497.4
60993
63203.3
64259.1
80399.9
79181.4
76500
72082.2
63680
49550.5
23476.5
2253.49
9624.71
32700.1
48270.4
59116.8
62030.5
63922.5
64812.9
80524.3
79364.4
76884.4
72785.3
67002.7
52322.5
25107.9
4036.55
22254.7
42344.6
57050
60495
63006.3
64555.6
65312.6
80644.9
79533.1
77179.3
73499.3
66372.8
57455
38345
3756.77
44575.1
54172.7
58001.6
61430.8
63630.6
64993.4
65676.5
80719.8
79639.4
77372.4
73947.3
67153.1
58971.9
45583
6257.76
46681
55179.2
58761.5
61913.6
63963
65226.1
65869.6
85995.2
85886.8
85738.1
86829.7
89384.7
95940.6
141683
155552
106725
83909.7
76864.7
74477.7
73342.6
72950.1
72863.1
85891.7
85747.8
85546.1
86392.6
88669.4
95835.4
145262
162208
106251
82826.8
76037.8
73933.2
72970.6
72683.2
72636.4
85705
85505.3
85259.7
85307.5
87470.1
85820.9
113924
127989
101301
76540.8
74137.6
72826.9
72293.4
72186.2
72210.8
85450.2
85182.3
84721.8
84480.8
81759.8
82296.5
92789.4
96986.3
80828
72765.1
69331.4
71378.7
71291
71471.3
71607.6
85167.1
84790.9
84135
81670.7
80147.2
76416.7
71063.6
37553.3
58542.5
61242.1
63626.9
66518.8
69983.4
70570.3
70896.9
84883.1
84457.3
82398.1
80564.9
76829.1
71680.8
65920.2
18116.5
39380.2
51387.3
56893.6
63777.7
66041
69713.3
70193.2
84616.5
84126.7
81815.5
79722.6
74685.5
68053
52627.1
2344.38
16105.7
35685.7
48383.8
58330.5
64472
69011.9
69629.6
84392.7
83860.6
81395.6
78264.6
73366.1
65592.5
54953.6
2290.58
2289.33
2162.8
35374.2
53619.9
63522.4
68650.3
69336.5
84230.9
83669.5
81113.4
77794.9
72338
62683.5
40240.9
2313.12
2323.78
2163.11
31756.7
52976.6
63488.4
68698.2
69350.9
84153.9
83589.8
80974.6
78259
71891.6
61109.1
35112.2
2282.14
2312.8
21022.1
43443.5
57117.3
64290.3
69077.1
69638.2
84128
83552.5
82397.7
78428
72783.3
62281.2
37128.3
2290.6
2303.53
35943.1
51322.6
62744.1
68730.4
69610.5
70077.5
84206.1
83714
82691.6
81364
75929.1
71147.8
51636.2
5635.81
27867.3
52990.9
62813.6
69012.9
69689.7
70308
70607.9
84346.9
83951.3
83250.1
82454.6
83329.5
77221.5
95491.3
110548
85027.7
67345.8
70867.1
70548.5
70687.9
70921.4
71096.4
84474
84151
83553.1
83663.7
84703.4
90467.8
134960
146069
98075.5
77911.1
72922.7
71694.3
71312.4
71356.4
71452.7
84553.1
84278.5
83771.1
84217.6
85896
91582
135990
155862
100852
79414.8
73873.6
72248.5
71663.2
71592.3
71645
90220.5
90775.4
91910.3
94829.9
101563
105208
125977
130595
110037
97087.4
88663
83490.8
80584.2
79198.1
78627.1
90141.8
90664.6
91803.6
94761.2
101447
105961
128530
136212
110410
96961.1
88253.7
83105.4
80274.2
78965
78429.4
89987.8
90424.6
91577.6
93914.8
99604.2
105372
120680
143452
112235
96701.6
86214.8
81998.3
79628.7
78508.3
78053.7
89757.5
90115.2
91016.9
93096.3
94733.6
103676
123027
153119
116095
93359.9
83784.8
80435.7
78737.7
77885.7
77533.1
89488.8
89702.4
90269.9
90208.6
92724.9
97788.5
114132
163214
109599
87515.7
79697.8
77242.5
77561.9
77090.2
76913.5
89245.4
89346
88410.1
88922.2
89469.1
92446.1
105432
137180
94141.1
78996.5
74572.3
75226.2
74788.8
76408.8
76358.9
89040.6
89080.8
87954.8
88117.3
86915.3
88136.8
92173
97189.3
66900
67450.6
69205
71767
73784.3
75931.8
75959.9
88883.7
88906.7
87632.7
86559.8
85646.6
84840.6
76022.5
2216.08
20572.6
44844.5
63826.9
68945.4
73297.3
75715.9
75766.7
88772
88786.4
87460.6
86288.9
85168.3
84601.2
88450.3
2132.93
2167.75
38369.4
63624.8
68961.1
73371.7
75779.1
75799.7
88720.5
88759.6
87391.1
87323
85179.5
84765.4
80143.3
7642.11
2263.86
54158.7
67778.7
71698.5
73902.8
76075.8
76033.4
88687.2
88805.9
89115.7
87700.3
86719.9
86337
88603.8
107878
67044.9
71137.2
71993.8
75090.4
76906.5
76515.2
76368.4
88741.9
88936.7
89422
90705.8
90317.9
95353.4
104866
150864
98439.4
82747.2
79380.7
78968.7
77644.5
77050.6
76787.3
88850.6
89130.8
89919.9
91523.7
95727.3
97983.2
109456
125597
102672
89925.3
83631.2
80257.7
78417.5
77532.3
77185.1
88936.8
89309
90120.3
92523.1
98059.4
101842
122805
124591
104624
92820.7
85703.5
81250.3
78939.4
77896.3
77473.1
88989.6
89408.7
90267.1
92760.2
98770.7
102240
122218
125850
105203
93928.6
86323.4
81665.7
79216.5
78087.9
77632.7
93669.4
94337.9
95575.3
97045
101852
100399
100016
102044
97966.1
96729.2
92277.7
88482.2
85871.4
84360.1
83642.9
93654.8
94323.1
95605.4
97390
102282
101418
101761
103381
98880.5
97197.7
92398.8
88407.3
85723.6
84218
83509.5
93605
94218
95606.2
97639
101567
103660
106874
113231
103306
97271.7
91679.4
87912.2
85326.7
83900.5
83243.7
93498.7
94096.8
95411.3
97762
99761.9
105106
112877
121311
109725
97680.5
91157.3
87174.2
84794.9
83467.6
82877.1
93342.6
93848.1
95099.2
95861.1
99336.1
104451
114567
123305
111943
98268.8
89907.5
85655.2
84066.1
82907.1
82438.5
93206.5
93622.3
93768.3
95434.1
97697.8
103024
113721
125461
111104
96569.2
88517.8
84889.3
82637.6
82430.6
82064.1
93117.1
93502.7
93618.5
95240.2
96711
102303
113442
124846
110568
97084
88564.4
84117
82303.5
82182.1
81840.7
93055.5
93444.3
93542.5
94267.2
96568.3
102134
112695
150127
120544
111348
93198.2
84498.3
82305.8
82115
81763
92998
93400.4
93516.3
94267.7
96815
103390
114072
114792
76807.4
174115
99991.8
85543.9
82544.7
82198.1
81815.1
92954.2
93387.6
93488.7
95264.5
97052.9
104849
124758
184509
135451
114413
94978.4
85683.6
82818.5
82411
81983.8
92899.2
93438.3
94693.2
95323.4
97764.9
104542
122188
161345
131783
103599
91317.8
85850.5
84066
82769.1
82213.3
92867.6
93425.4
94640.9
97058
98791.3
105653
116913
136234
119150
100097
90827.9
86949
84409.7
83091.2
82481.9
92856
93412.7
94680.5
96602
100036
103241
110572
118808
106323
97118.6
90977.3
87171.8
84732.9
83351.7
82725.7
92830.6
93435.4
94577.6
96307.3
100819
100107
101821
102190
97940.5
95545.2
91326.2
87403.9
84955.6
83552.8
82894.7
92815.8
93427.2
94537.6
95963.8
100374
99068.5
98654.4
98906.7
95957.4
95348.8
91074
87441.7
85051
83647.1
82983.4
95942
96334.9
97250.3
97211.1
99481.5
98726.4
97111
100323
95982
95586.1
92883.8
90897.6
89258.8
88137.1
87546.6
96000.1
96435.3
97364.6
97658.4
100077
99385.7
98004.9
100098
96834.3
96152.2
93268.3
91039.2
89271.4
88103.6
87494.4
96089.2
96537.9
97564.9
98529
100732
101668
103343
106177
101888
97661.8
93764.9
91161.5
89202.6
87984.8
87375.3