/*--------------------------------*- C++ -*----------------------------------*\
| =========                 |                                                 |
| \\      /  F ield         | OpenFOAM: The Open Source CFD Toolbox           |
|  \\    /   O peration     | Version:  v2012                                 |
|   \\  /    A nd           | Website:  www.openfoam.com                      |
|    \\/     M anipulation  |                                                 |
\*---------------------------------------------------------------------------*/
FoamFile
{
    version     2.0;
    format      ascii;
    class       volScalarField;
    location    "0.004";
    object      p;
}
// * * * * * * * * * * * * * * * * * * * * * * * * * * * * * * * * * * * * * //

dimensions      [1 -1 -2 0 0 0 0];


internalField   nonuniform List<scalar> 
449343
(
90014.1
90195.9
90513.2
90870.2
91118.5
91103.2
90544.8
89381.3
87646.8
85531.7
83319.4
81285.7
79630.8
78475.8
77884.9
89997.8
90179.8
90497.5
90854.5
91102.4
91085.7
90526.6
89363.3
87630.2
85516.8
83305.5
81271.4
79615.5
78459.5
77867.9
89984.4
90166.9
90485.1
90842.2
91089.1
91069.1
90508.3
89345.4
87615
85505.3
83296.6
81262.1
79604.1
78446.1
77853.4
89973.1
90156.2
90475.2
90832
91077.2
91051.5
90488.7
89324.8
87598.3
85494.3
83290.8
81256.8
79596
78435
77840.7
89962.8
90146.7
90466.5
90822.8
91065.1
91031.5
90465.3
89301.4
87579.6
85483.6
83286.9
81253.8
79589.9
78425.4
77829.1
89952.1
90136.7
90457.2
90812.8
91052.9
91013.5
90443.8
89280.5
87563.3
85474.8
83283.6
81251.4
79583.9
78415.8
77817.4
89939.2
90124.5
90445.6
90801.1
91038.8
90996.6
90425.2
89261.1
87548.3
85465.9
83276.9
81246.5
79575.7
78404.4
77804.4
89923.1
90108.5
90430
90785.5
91022.5
90979.4
90403.5
89237.2
87524.8
85449.7
83263.7
81233.8
79561.8
78389.4
77788.9
89903
90088.2
90409.5
90765
91002.8
90961
90389.5
89225.9
87513.4
85431.9
83243
81212.5
79541.7
78370.4
77770.4
89879.4
90064.2
90384.9
90740.8
90981.2
90942.4
90373.4
89210.6
87493.8
85405.9
83215
81183
79515.6
78347.4
77749.1
89853.6
90037.6
90357.7
90714.5
90957.3
90924.7
90359.4
89196.4
87475.3
85379.9
83183.6
81150.7
79486.9
78322.4
77726.1
89826.8
90010.2
90329.5
90686.9
90932.8
90908
90346.3
89183.7
87458.2
85355.1
83152.2
81118.4
79457.8
78296.8
77702.5
89800.6
89983.4
90302.1
90659.9
90907.6
90888.9
90329.5
89167.8
87438.6
85329.9
83121.8
81087.7
79429.8
78271.8
77679.1
89776
89958.3
90276.5
90634.3
90883.1
90867.8
90310.2
89148.3
87416.5
85304.2
83093.7
81060
79404.1
78248.2
77656.6
89753.8
89935.8
90253.7
90611.5
90860.6
90847
90290
89128
87394.9
85280.9
83069.5
81036.1
79381.3
78226.4
77635.4
89810.8
90041.6
90460.9
90977.9
91425.3
91629.3
91224.8
90023.6
88057.7
85614
83102.8
80861.2
79084.5
77866.5
77249.3
89794.6
90025.8
90445.8
90963.3
91410.5
91612.8
91206.6
90005.7
88042.1
85601.2
83090.8
80847.9
79069.4
77849.9
77232
89781.5
90013.6
90435
90953.3
91400.1
91597.8
91188.7
89989
88029.7
85595
83087
80841.3
79058.6
77836.1
77216.8
89770.7
90004.1
90427.4
90946.8
91391.3
91581
91165
89962.4
88012.2
85589.1
83088.6
80840.2
79051.5
77824.5
77203.2
89761.1
89996.1
90421.9
90941.8
91383.2
91556
91134
89932
87979.3
85582.3
83094.5
80843.3
79046.9
77814.4
77190.5
89751.2
89987.8
90416.2
90937.4
91375.6
91539.9
91109.7
89908.9
87967.1
85576.1
83101.4
80848.4
79043.2
77804.5
77177.9
89739
89977.1
90407.8
90929.7
91362.8
91529.2
91092.5
89889.7
87954.2
85576.1
83115.5
80852.5
79037.1
77793.5
77164.5
89723.1
89961.6
90392.9
90916.1
91348.8
91512.4
91070.4
89815.2
87922.8
85557.6
83105
80841.7
79023.4
77778.8
77148.8
89702.8
89940.9
90371.8
90893.8
91326.7
91493.9
91057
89854.4
87919.4
85542.5
83082.2
80818.9
79003.3
77759.6
77130.6
89678.7
89915.4
90344
90865.6
91304.4
91469
91039.4
89839.4
87898.2
85507.6
83033.1
80780.5
78975.4
77736.7
77110
89652.1
89887.2
90313.4
90833.8
91275.7
91449.6
91028.6
89827.8
87875.6
85479.5
82992.1
80741
78944.7
77712.2
77088.2
89624.7
89858.3
90282.1
90802.1
91247.3
91437.9
91023.2
89822
87873.4
85451
82951.1
80702.9
78914.2
77687.2
77065.9
89598.1
89830.4
90252.3
90771.5
91219.1
91418.2
91010.5
89812.4
87854.5
85420.8
82913.5
80668.1
78885.4
77662.9
77043.5
89573.2
89804.7
90225.3
90743.6
91191.8
91395.5
90991
89791.9
87829.8
85390.1
82880.4
80637.8
78859.3
77639.7
77021.8
89550.8
89781.9
90201.8
90719.7
91168.1
91373.7
90970.9
89771.5
87807.3
85364.9
82854.4
80613
78836.4
77618.3
77001.1
89300.9
89643.7
90297.5
91189.4
92143.3
92900.9
92961
91663.7
89075.9
85768.8
82520.8
79802.5
77757.3
76401.9
75728.4
89284.9
89628.5
90283.8
91177.2
92131.8
92887.5
92943.8
91647.7
89063.8
85761.3
82513.2
79791.1
77742.1
76384.6
75710.2
89272.1
89617.4
90276.2
91173.4
92128.9
92879.5
92922.9
91633
89057.1
85769.8
82521.9
79789.6
77731.9
76369.6
75693.3
89262
89610
90274.1
91176.8
92133.3
92868.4
92887.2
91611.8
89028.2
85779.5
82547.5
79799.1
77726
76356.3
75677.1
89253.6
89605.2
90276.2
91184.8
92133.9
92834.9
92792.2
91503.6
88951.8
85796.7
82577.6
79814.4
77723.9
76344.3
75661.5
89244.9
89600.8
90279.7
91191.9
92140.8
92809.6
92756.9
91481.5
88945.7
85806.5
82627.5
79836.6
77722.8
76333.1
75646.1
89233.8
89592.6
90276.3
91200.7
92134.1
92810.4
92732.2
91455
88932.4
85811.6
82730.1
79859.2
77722.9
76321.5
75630.6
89218.6
89579
90264.1
91191.9
92128.8
92813.6
92750
91353.6
88905.2
85795
82721.6
79850.6
77710.8
76307.6
75614.8
89197.7
89556.6
90240.3
91165.1
92098.3
92775
92697.5
91421.4
88898.7
85778.3
82696.9
79825.9
77689.3
76287.9
75597.1
89172.8
89528.9
90208
91120.5
92070.2
92739.5
92686.8
91412.4
88877.7
85739.2
82560.7
79770.1
77656.2
76266.3
75579.3
89145.1
89496.9
90168.2
91077.4
92027.3
92729.2
92687.8
91400.9
88851.1
85696.1
82477.3
79714.1
77623.5
76243.7
75560.8
89116.7
89465
90129.5
91033
91990.5
92726.3
92747
91473.3
88891.3
85644
82412.8
79664.4
77591.1
76221.2
75541.9
89089.5
89435.1
90094.4
90992.5
91949.3
92700.9
92746.8
91459.3
88885
85598.8
82351.7
79619.5
77561.4
76198.9
75522.4
89064.3
89408.2
90064.2
90958.6
91914.5
92671.5
92730
91436.5
88854.8
85553.9
82306.5
79584.4
77535.2
76177.3
75502.7
89041.8
89384.9
90039.4
90932.3
91887.7
92646.7
92709.2
91414.7
88829.1
85523.6
82276.3
79558
77512.4
76156.6
75483
88349.1
88855.6
89862
91346.4
93191.7
95063.9
96334.3
94874.9
90895.5
85780.2
81268.9
77863.9
75477.6
73964.3
73232.2
88332.7
88840.4
89849.5
91337.7
93185.8
95056.5
96313.8
94862.2
90886.1
85780.4
81266.4
77852.8
75460.9
73945.1
73212.1
88319.3
88830
89845.4
91343.7
93199
95063.4
96301.3
94864.6
90912.8
85825
81292.1
77853.6
75447.8
73926.5
73191.5
88308.6
88823.9
89850.7
91367.2
93229
95090.1
96150
94872.2
90865.9
85944.6
81371
77871
75438.4
73907.9
73169.9
88299.7
88821.6
89863.8
91399.7
93278.8
95048.3
95250.3
94417.6
91445.8
86049.1
81456.2
77902.6
75431.1
73888.3
73147
88291.2
88821.2
89886.2
91461.8
93328
94199.3
95150
94381.8
91475.4
87188.2
81618.3
77948.8
75429.7
73869.1
73124.3
88279.9
88817.3
89896
91493.8
92672.3
94235.6
95113.2
94332.9
91437.6
87208.1
82820.5
77972.8
75423.1
73851.2
73102.6
88264.4
88806
89890.7
91490.8
92652
94247.8
95132
94224.6
91416
87205.4
82786.6
77964.7
75421.9
73840.2
73084.7
88244.1
88781.4
89860.1
91458.5
92628.1
94214.5
95085.1
94281.3
91405.9
87182.3
82775.3
77939.8
75389.3
73817.9
73069.9
88219.7
88749.9
89815.4
91391.4
93257.8
94140.9
95063.6
94287.8
91384.9
87151.4
81554.5
77884.6
75365.4
73804.5
73059.3
88192
88714.1
89756.7
91293.2
93173.4
94944.6
95137
94308.8
91373.9
85951.6
81359.2
77805.6
75333.6
73790.2
73048.8
88164.3
88679.9
89707.3
91224.7
93087.6
94949
96013.5
94738.3
90734.4
85814.3
81241
77740.6
75307.2
73776.2
73037.9
88137.9
88648.9
89665
91164.2
93021
94887.2
96127.1
94694.5
90744.9
85659.5
81127.3
77688.4
75281.8
73759.8
73024.5
88113.5
88621.6
89631.4
91120.7
92970.4
94842.9
96103.2
94655.7
90682.9
85579.7
81066.2
77651.9
75258.9
73742.3
73008.9
88091.4
88598.3
89605.4
91091.1
92938
94812.2
96085.9
94631
90654.8
85542
81031.2
77625.4
75238
73723.8
72991.3
86751.2
87437.6
88852.4
91081.6
94209
98204.1
102326
100327
93695.4
84996.2
78672.8
74636.6
72029.6
70456.5
69722.1
86732.9
87420.8
88839.1
91074.8
94209.4
98206.4
102314
100319
93708.4
85016.9
78675
74621.3
72007.9
70433.6
69698.8
86716.1
87407.6
88834.4
91088
94251.5
98251.5
102325
100324
93766.1
85075.3
78701.6
74609.3
71983.7
70406.9
69671.6
86700.3
87398
88841.7
91148.6
94404.1
98382.8
99996.7
100372
95188.4
85594
78890.3
74630.2
71959.2
70376.9
69640.1
86685.1
87390.5
88862.7
91219.2
94540.5
96849.4
100003
100295
95278.3
87660.9
79028
74636.7
71925.9
70336.6
69602.9
86671.1
87392.4
88911.3
91419.8
93651.7
97018.4
100033
100167
95233.2
87839.1
81134
74704.5
71888.7
70303.1
69566.1
86652.8
87375.9
88900.5
90822.2
93690.5
97108.5
99044.1
99389.3
95421.5
88751.3
81326.9
76512.1
71811
70250.7
69527.5
86638.4
87368.1
88952
90801.8
93713.9
97121.6
99058.8
99357.8
95436.9
88790.5
81402.7
76558.5
71911.9
70229.9
69511.9
86617
87340.3
88864.5
90771.1
93684.9
97095.3
99019.7
99347.4
95394.7
88770
81367.8
76531.3
71777.8
70218.8
69496
86600.6
87322.3
88841.7
91350.8
93582.8
96984.9
99020.1
99338.9
95366.3
87824.8
81153
74643.5
71827.6
70241.6
69503.3
86578.4
87284
88756.7
91114
94436.2
96791.8
99890.9
100077
95111.5
87690.5
78936.3
74544.3
71832.5
70241.3
69507.9
86557.5
87255.5
88700
91007.9
94265
98245.8
99837.8
100223
95164.5
85471.4
78767.3
74505.8
71833.2
70250.1
69512.4
86536.4
87228.3
88655.8
90910.4
94075.3
98077.9
102154
100175
93606.3
84919.2
78545.1
74451.1
71823.6
70245.6
69509.7
86515.5
87203.8
88623
90859.9
93996.2
97995.7
102106
100126
93514.6
84827.6
78484.7
74428.6
71813
70236.9
69501.2
86495.4
87182.2
88597.9
90828.4
93957.6
97955.6
102080
100092
93464.1
84770
78445.5
74406.6
71797.2
70222.5
69487.1
84245.5
85065.8
86818.6
89765.6
94356.9
101584
107662
114086
101759
81337.1
73574.1
69577
67130.4
65764.3
65160.1
84223.4
85044.7
86800.2
89755
94363
101591
107652
114068
101749
81345
73563.2
69547.2
67100.1
65736.6
65133.3
84198.5
85022.2
86783.1
89745.4
94387
101650
107659
114047
101713
81292.1
73509.1
69479
67050.1
65695.7
65097.1
84170.5
85001
86778.3
89797
94753.7
99504.4
107821
114119
101618
85462.3
73617.3
69361.2
66989
65649.1
65052.6
84136.9
84966.1
86752.4
89863.3
93546.5
99768.5
108089
111539
102728
86211
76799.2
69252.6
66841
65566.1
64994.1
84107.9
84933.3
86803.2
89480.7
93684.2
98868.1
106248
110463
102773
88368
76923.5
71628.4
66719.3
65471
64932.7
84073.8
84888.4
86789.3
89520.7
93828.4
98871.3
105315
110372
103127
89259.3
78578.2
71651.2
66592.7
65379.9
64874.5
84044.2
84842.4
86819.6
89573.1
93192.4
98385
105319
110332
103082
89242.7
78550.1
71650.9
68567.1
65298.3
64841.7
84038.5
84853.9
86755.9
89525.4
93169
98837.9
105302
110316
103069
89233.3
78539.4
71598.7
66566.9
65350.1
64843.9
84038.7
84864.4
86734.4
89403.8
93735.6
98825.8
105242
110330
103087
89233.1
78565.5
71615.7
66658.4
65411.3
64872.8
84031.3
84860.8
86647.8
89760.1
93452
99774.4
106069
111352
102685
88193.8
76840.4
69168.1
66754.4
65476.6
64903.6
84029.6
84860.5
86638.9
89658.4
94616.7
99415.6
107735
113997
101491
85511.2
73503.9
69244.6
66869
65527
64929.9
84020.7
84844.9
86606.8
89570.5
94212.9
101477
107519
113871
101545
81153.1
73365.3
69330.7
66897.2
65541.8
64941.5
84008.2
84830.1
86586.6
89542.8
94152.3
101383
107451
113868
101577
81175
73387.1
69365.7
66914.5
65547.3
64942.4
83992
84812.9
86566.8
89515.1
94107.9
101337
107422
113854
101547
81132.2
73361.7
69358.7
66907.2
65538.1
64932.3
80589.5
81403.4
83187.1
86339.5
91504.9
98524.9
115102
145961
107974
75063.4
63957.5
61869.9
60528.9
59883.9
59615
80562.3
81375.5
83158
86309.6
91482.4
98507.8
115067
145932
107951
75033.1
63908.7
61812.5
60490
59852.6
59586.3
80524.2
81332.5
83107.8
86234.2
91373
98483.9
114975
145868
107908
74989.3
63761.2
61697.5
60416.2
59799.8
59544.6
80475.4
81278.5
83044.4
86026.3
90810
98879.7
114983
145677
107637
75008.8
67254.4
61324.8
60299
59723.9
59489.7
80405.8
81185.4
82855
86117.5
90837.8
98018.3
112171
145571
108475
78703.3
66915.3
63646.4
60011.1
59609.4
59414.3
80330.3
81030.3
83374.2
86182.3
90602.5
97984.8
110766
140515
112808
80595.1
69079.2
63426.3
61829.9
59437.9
59333.1
80287.9
80982.2
83370.4
86178.8
90624.4
97580.2
110655
140392
112766
80582.6
70251.8
65007.3
61734
59380.8
59283.5
80233
80930.5
83418.8
86193.9
90610.6
97544.1
110598
140339
112780
80587.6
70224.3
64968.8
61724.2
59358.8
59222.1
80251.4
80946.1
83351.9
86192.9
90614.4
97529.1
110583
140323
112764
80575.3
70216.7
64971.7
61673
59353.1
59253.5
80262.6
80963.8
83328.6
86098.7
90586.9
97530.4
110611
140351
112733
80545.7
70212.2
64982.3
61737.7
59382.3
59276.8
80301.4
81081.2
82752.6
86023.4
90748
97946.7
110698
140450
112745
80530.3
69147.7
63470.1
59929.2
59524.6
59328.3
80336.8
81140.1
82907.8
85890.2
90573.8
98661.7
112114
145438
107718
78845.7
67058.1
61217
60187.2
59609.1
59373.1
80348.6
81157.6
82934.5
86063.2
91202.8
98338
114805
145601
107732
74880.7
63634.8
61561.2
60274.6
59653.3
59395.7
80349.8
81163.7
82947.5
86100.7
91275.1
98314
114839
145701
107796
74910.7
63751.3
61644.6
60314
59671.7
59403
80338.8
81153.4
82938.5
86092.7
91259.3
98279.3
114850
145716
107799
74875.4
63765.4
61666.3
60316.9
59666.5
59395
75684.3
76252.1
77470.7
79579.7
82800.4
89577.9
96715.4
92717.5
22105.6
47029.4
49967.3
51576.3
52545.7
53154.6
53415.6
75654.7
76220.1
77434.6
79533.6
82759.7
89531.2
96673.5
92609.4
22055.9
46995.7
49874.4
51520.5
52515.1
53128
53391.5
75607.8
76162.2
77368.2
79477.3
82652.4
89432.9
96574.7
92511.8
22059.3
46974.6
49768.5
51471.9
52468.1
53088.8
53360.6
75542.1
76069.4
77260
79212.5
83937.2
89051.3
96320.3
92347.9
22096.6
47048.2
51449.2
51473.8
52406.7
53030.1
53324
75444.1
75933.2
77027.2
80382.4
83715.5
89499.3
97169.1
92155.1
23112
50413.1
53006.3
53064.9
52365.7
52981.2
53277.3
75322.3
75787.9
78263
80278.9
84198
89750.6
96957.8
91863.8
23358.6
50750.4
53961.5
53064.5
53781
52973.9
53231.8
75278.4
75729.4
78257.9
80203.7
84446.7
89675.4
96833.2
91705.1
23940.1
50875.3
54060.7
54140.9
53708.2
52989.9
53225.7
75239.9
75680
78214.5
80836.4
84434.6
89631.2
96767.4
91567.1
24044.9
50920.2
54091.8
54759
53708
52997.5
53195.4
75244.2
75694.8
78198.1
80810.8
84418.9
89616.5
96753.1
91571.7
24064.1
50913.3
54080.4
54744.8
53659.5
52964
53198.4
75255.9
75720.8
78213.9
80158.8
84394.7
89632.2
96792.2
91663.4
23972.7
50845.5
54023.6
54105.8
53676
52920.3
53177.9
75342.2
75832.9
76929.9
80240.3
84131.5
89676.6
96891.5
91798.8
23192.4
50673.2
53887.1
52931.7
52288.7
52901.3
53195.6
75405.5
75933.7
77124.8
79081
83727.6
88640.7
95955.4
92094.3
22776.5
48762.6
51242.1
51376.9
52304.5
52922.2
53213.4
75435.2
75990.7
77199.2
79310.8
82487.4
89076.8
96251
92203.6
22077.9
46870.3
49658.2
51350.7
52336.1
52949.8
53218.6
75445.1
76011.7
77228
79329.4
82558.8
89299.5
96412.2
92320.3
22021.6
46898.2
49741.8
51366.7
52349.4
52955.5
53215.6
75436.9
76005.7
77226.4
79338.4
82561.5
89328.7
96454
92370
22015.5
46897.3
49799.9
51387.9
52344.6
52945.8
53203.2
69740.1
69844.3
70022.9
70270.8
70838.3
75338.2
79097.4
91761.3
4104.51
26829.7
36355.9
41374.5
44593.9
46437.9
47246.2
69714.8
69817.1
69995.5
70242.2
70830
75297.6
79055.4
91542.4
4087.67
26808.5
36289.4
41366.3
44587.9
46425.8
47234.3
69680.3
69775.4
69952.2
70239.5
70819.5
75208.6
78965.7
91462.5
4280.25
26839.8
36287.3
41394.8
44598.6
46429.2
47232.7
69635.1
69705.3
69893.8
70324.9
73505.3
75161.7
78766.1
91323.5
3209.74
27046.3
37048.9
41691.5
44664.4
46455.6
47250
69568.6
69614.7
69867.7
72327.2
73591.1
76912.1
79788.1
91291
2316.48
27298.2
37920.2
42831.7
44882.6
46535.3
47285.9
69486.6
69597.6
71552
72294.1
74833.7
77686.7
79663.8
90968.1
2310.42
27649.8
38395
42949
45846.8
46698.4
47331.6
69462.6
69567.8
71516.6
72260.3
75468.3
77595.4
79573.4
90885.8
3789.51
27827
38502.8
43466.3
45867.7
46749.9
47362.8
69436
69533.4
71464.1
73309.4
75419.7
77545.8
79523.7
90784.1
2870.96
27820.3
38540.6
43746.3
45904.4
46767.2
47352.6
69430.3
69535.7
71447.9
73279.7
75406.3
77532.7
79510.4
90803
4527.24
27830.7
38531.2
43735.1
45874.4
46725.7
47337.8
69420.3
69531.1
71458.8
72233.3
75412.4
77557.3
79535
90841.9
4810.71
27805.4
38469.1
43445
45808.7
46645.8
47279
69469.3
69517.2
69772
72208.8
74790.9
77632.2
79599.1
90896.4
2316.34
27588.6
38314.2
42798.8
44811.7
46460.3
47208.4
69501
69573
69765.6
70202
73471.1
75170.2
78846.4
91202.5
2304.69
27181
37166.6
41604.8
44569.7
46353.3
47144.4
69510.6
69607.2
69786.5
70077.3
70665
75028
78709.3
91187.6
3236.63
26814.3
36193.4
41286.7
44474.4
46296.5
47096.5
69508.3
69612.2
69794.1
70046
70640
75075.2
78812.1
91283.4
4199.35
26740
36170.3
41222.7
44430.7
46260.2
47064.5
69495.6
69601.8
69784.2
70037.2
70610.8
75103.8
78851.5
91322.2
4123
26730.9
36204.9
41199.3
44402.2
46236.4
47040.2
63359.9
62955.2
62113
60803.8
61333.6
61480.8
64757.3
2306.5
19267.8
28356.4
34215
38356.6
40847.3
42000.8
63347
62941.4
62101.4
60793.5
61319.3
61454.9
64726.7
2308.59
19235.1
28331.7
34243
38365.3
40847.3
41999.3
63341.8
62937.2
62091.6
60790.4
61390.9
61458.9
64668
2309.3
19068.2
28379.8
34267.9
38396.3
40876.2
42018
63350.4
62941.6
62091.4
60949.6
61843.2
61428.2
64509.7
2296.4
19113.4
28372.8
34533.3
38491.4
40952.8
42070.5
63366.3
62955.2
62259.7
63151.8
62340.3
63385.9
65082.8
2298.47
17560.2
28317
34941.8
38644.1
41074.5
42151.5
63374.7
63088.9
63991.6
63350.8
63753.7
64303.6
65020.4
2294.44
17582.6
28308.6
35009.2
39169
41191.6
42252.9
63391.2
63118.9
63933.2
63423
64531
64324.9
64998.1
2291.34
17620.2
28366.4
35175.3
39214.3
41227.9
42280.7
63375.9
63108.6
63908.1
64391
64581.4
64320.9
64980.5
2297.07
17615.4
28383.2
35272.8
39198.4
41244.8
42274.6
63359.3
63087.8
63880.2
64381.4
64567.8
64307.2
64969
2298.82
17616.5
28375.7
35261.4
39178.5
41205
42258.2
63309.2
63024.3
63872.4
63382.7
64485.3
64284
64963.4
2287.24
17610.5
28339.7
35143.5
39168.6
41142.2
42201.5
63268.5
62859.7
62167.6
63076.8
63651.5
64234.7
64961
2291.77
17553.9
28260.6
34893.8
38576.6
41002.2
42078
63218.1
62811.2
61966.2
60832.4
61881.6
61453.2
64212.8
2298.22
18039.6
28395.4
34450.5
38399.5
40853.8
41967.9
63174
62771.8
61930.3
60635.4
61333.9
61307.7
64457.8
2299.66
18953.3
28294
34166.1
38276.1
40747.6
41886.1
63142.8
62739.9
61905.4
60606.2
61213.4
61297.4
64532.3
2310.06
19138
28220.3
34104.2
38212.6
40685.7
41833.3
63117.7
62715.9
61879.5
60578.3
61105.6
61269.6
64545.4
2307.13
19188.9
28212.2
34046.8
38169.7
40650.1
41798.8
57332.5
56450.2
54620.1
51557.7
50393.5
45563.1
43358.4
3058.51
2292.58
16315
24409.4
30276.8
34484.3
37096.5
38359.4
57331.6
56448.4
54617.4
51551.8
50377.2
45538.5
43340.4
3091.02
2292.25
16350
24393.7
30299.4
34485.7
37096.3
38357.8
57350.2
56470.3
54627.7
51516.6
50379.2
45511.5
43317.5
3140.27
2294.53
14057.7
24461
30320.4
34503.7
37117
38373.2
57399.2
56527.2
54628.8
51601.7
50437.3
45502.2
43322.3
3316.65
2304.13
14383.7
23444.2
30382.2
34541.9
37173.9
38412.1
57481.8
56608
54796.4
54223.8
50699
48027.1
45076.7
3222.64
2288.87
13186.6
22882.3
29963.5
34580.6
37248.3
38467.4
57560.7
56802.5
56620
54411.8
52399.7
49238
45242.7
3018.46
2291.21
13178.8
22613.5
29989.5
34520.2
37261.2
38540
57603.9
56850.6
56639.6
54448.5
53218.1
49307.8
45302.8
3217.19
2289.61
13175.4
22633.6
29750.3
34568.9
37261.3
38551.4
57599.5
56860
56634.8
55559
53290.8
49331.2
45307.5
3173.06
2304.72
13152.7
22638.1
29644.1
34562
37268.5
38544.2
57572.3
56818.5
56608.2
55556.7
53277.2
49318.9
45301.4
3240.15
2299.09
13152.6
22631.3
29634.5
34549.1
37238.6
38529.1
57496.4
56744.2
56578.6
54407.7
53197.7
49270.7
45281
3226.6
2261.37
13169
22610.2
29726.3
34531
37216.8
38496.8
57383.7
56510.8
54709.2
54189.2
52305.8
49166.3
45196.7
3220.64
2290.29
13149.2
22581.5
29905
34515.4
37179.6
38393.4
57267
56397.3
54505.1
51490.7
50333.9
45511
43370.2
3253.28
2285.51
13678.5
23391.5
30300.9
34450.7
37074
38310.2
57182.6
56306.5
54470.7
51373.6
50228.6
45388.5
43222.7
3252.65
2292.17
14086.8
24372.7
30212.9
34382.1
36988.3
38241.4
57127.9
56248.4
54426.1
51375.9
50225.9
45388.7
43212.3
3137.26
2291.99
16264.5
24289.5
30165.3
34334.6
36936.3
38193.5
57090.8
56212.6
54391.1
51344.1
50190.5
45385.7
43200.1
3080.64
2291.63
16177.2
24272.3
30107.3
34296.8
36900.5
38158.9
52363.6
51038.8
48257
43450.8
35609.9
29543.4
11816.6
2282.03
2299.94
15977.8
22723.3
28555.6
32687.7
35266.3
36534.4
52369.1
51043.1
48256.1
43449.6
35591
29502.1
11793.9
2284.83
2300.17
15993.4
22696.7
28561.2
32673.4
35258.3
36525.1
52399.1
51075.6
48277.7
43419.2
35495.8
29270.2
11710.3
2288.51
2299.67
13945.1
22769
28580.2
32667.3
35257.8
36522.5
52461
51157
48292.9
43532.8
39950.3
29235.6
11791.8
2280.64
2300.4
13130.4
21045.2
28500.5
32652.1
35272.4
36529.8
52563.3
51267.1
48397
46511.2
40119.9
32805.9
17607.5
2287.48
2290.65
11222.8
20194.9
27374.8
32624.1
35306.2
36543.9
52675.1
51383
50498.1
46585.6
42301.4
34562.8
18622.6
2289.54
2311.29
11139.7
19755.3
27329.4
31955.5
35282.8
36579.9
52719.9
51426.8
50547.8
46550.3
43260.1
34651.5
18709.5
2289.32
2307.98
11165.3
19749.4
26789.1
31958.6
35266.5
36576.4
52719.1
51441.5
50556.2
48001.9
43240.8
34679
18723.1
2288.45
2304.44
11173
19749
26531.2
31954.8
35265.2
36569.6
52687.8
51395.2
50531.6
47994.3
43226.8
34668.6
18719.4
2288.54
2287.37
11167
19742.2
26524
31949.4
35245
36554
52609.5
51318.2
50494.1
46507
43230
34619.2
18699
2289.4
2303.18
11137.1
19727.7
26778.5
31941.8
35239
36536.2
52462.8
51169.4
48307.2
46580.9
42217.9
34501.6
18587
2289.12
2302.59
11114.2
19732.3
27286.1
32560.8
35239.1
36472.6
52325.9
51027
48170.5
43425.2
39969.5
29477
13265.2
2286.45
2280.7
11810.8
20987.4
28425.6
32563.5
35175.3
36430.3
52228.7
50909.7
48123
43279.8
35383.8
29227
11710.9
2281.46
2300.21
13653.5
22671.4
28465.9
32544.9
35130.1
36391.2
52162.2
50841.5
48065
43278.3
35451.2
29315.3
11692.2
2290.25
2300.64
15888.3
22573.5
28412.3
32517
35095.8
36359.5
52118.7
50799.2
48028.8
43242.7
35435.3
29392.6
11741.3
2284.59
2299.55
15805.5
22570.6
28370.7
32494.6
35067.3
36332
49074.4
47476.4
44138.7
38575.2
30237
21074.3
2307.4
2277.66
2299.73
14487
22655
28660
32680.8
35206.8
36444.7
49083.2
47486.8
44142.7
38592.3
30317.6
21122.7
2308.5
2286.69
2300.46
14453.5
22621.6
28637.3
32651.9
35190.3
36426.9
49120.2
47527.8
44169.6
38588.5
30206.4
22564.3
2310.9
2291.88
2303.06
12866.2
22930.4
28631.2
32633.9
35176.8
36410.5
49191.3
47639.5
44270.3
38795.1
33563.4
22479.8
2316.64
2291.1
2613.52
12540.5
20610.7
28521.3
32598.9
35163.1
36399.2
49301.9
47788.5
44477.7
41271.4
33836.6
24839.6
10947.5
2289.73
2293.49
10660.1
19503
26851
32569.8
35185.4
36396
49429.9
47905.3
46179
41457.4
35650.1
26082.9
11132.9
2290.13
2288.81
10517.2
18918.5
26781.8
31385.3
35171.7
36421.3
49478.7
47950.7
46305.1
41530
36500.6
26180.8
11197.4
2290.46
2293.78
10479.8
18895.8
25972.7
31372.7
35161.1
36414.9
49482.2
47966.7
46345.7
42729.9
36500.8
26211.3
11205.8
2290.92
2293.28
10527.8
18895.3
25587.2
31371
35158.1
36411.7
49444.4
47917.3
46322.5
42714
36486.5
26201.3
11205.4
2290.78
2295.06
10514.2
18889.8
25582
31372.7
35140.9
36393.5
49359.1
47835
46247.3
41464
36460.9
26147.5
11175.2
2290.29
2293.64
10458.9
18880.1
25974.4
31371.9
35132.7
36378.2
49196.4
47686
44383.4
41386
35554
26027.5
11097.7
2289.91
2285.97
10504.3
18906.9
26765.4
32510
35118.8
36326.6
49049.9
47502.7
44142.5
38682.8
33614.9
22664.2
10184.5
2289.49
2290.16
11295.4
20550.8
28445.7
32512.2
35068.1
36301.4
48942
47353.8
44005.8
38440.9
30087.2
22599.4
2311.36
2291.41
2303.76
12888.4
22830.1
28516.3
32510.4
35048.3
36278.8
48867.8
47276.7
43943.3
38414.6
30176.4
21024.8
2308.3
2293.88
2300.36
14369
22462.1
28475.1
32489
35023.6
36258.6
48820.7
47228.1
43901.9
38361.5
30059.2
20947.4
2307.33
2277.82
2299.51
14413.4
22472.6
28461
32481
35002.3
36238.6
47928.8
46352.8
43067.1
37877.2
29105.4
19592.9
2293.74
2307.68
2301.39
16861.9
24891.7
30650.6
34460.3
36833.2
37973.7
47939.3
46368.8
43083.1
37874.2
29265.3
19555.3
2293.52
2301.75
2303.42
16813.5
24790.7
30585.4
34414.9
36806.1
37948.3
47981.2
46413.5
43121.3
37727.9
30279
19461.8
2314.02
2297.33
2309.46
13848.9
25075.8
30578.7
34401.3
36786.1
37924.9
48066.9
46543
43260.8
37892.5
32084
19969.2
2443.85
2304.02
2299.61
13489.2
22070.4
30495.8
34356.9
36758.8
37909.3
48196.6
46734
43504.6
39536.9
32041.8
22539.3
9440.83
2288.75
2297.02
11228.7
20665.7
28337
34368.1
36789.7
37910.6
48353
46891.7
44548.8
39709.4
33303.3
23466.1
9563.43
2286.14
2289.04
11071.7
19939.6
28285.5
32755.5
36812.9
37942.7
48414.6
46963.3
44671.9
39829.6
33933.7
23557.3
9635.51
2285.87
2289.94
11067.2
19929.8
27233.8
32759.9
36822.2
37944.2
48427
46986
44731.8
40644.3
33949.4
23568.1
9549.88
2290.51
2288.82
11076.1
19941.8
26729.9
32772.5
36824.6
37947.1
48377.1
46926.9
44707.9
40624.9
33938.3
23565.2
9552.97
2289.61
2291.23
11085.5
19942
26728.7
32776.6
36805.7
37925.5
48276.1
46816.3
44592.4
39756.8
33899.2
23532.8
9583.6
2285.52
2290.81
11058.9
19929.4
27246
32765.5
36777.6
37901.8
48082
46621.8
43398.9
39623.8
33205.6
23412.5
9494.86
2286.6
2291.63
11089.1
19947.2
28287.5
34316.3
36727
37844.2
47913.6
46392.8
43117.4
37764.8
31935.8
20910.1
8882.9
2290.17
2302.36
11969.9
22027.7
30421.4
34272.8
36666.2
37813
47789.3
46224.6
42940.1
37560.9
30134.8
19627.9
2332.51
2299
2312.37
13691.8
24956.2
30457.2
34275.5
36656.3
37792.6
47709.1
46142.7
42863
37679.6
29083.3
19490.4
2293.52
2302.66
2302.87
16591.9
24599.1
30410.8
34243.7
36634.8
37777.2
47659.9
46088.3
42808.5
37646.6
28893.9
19499.3
2293.98
2306.9
2301.06
16648.3
24667.1
30440.9
34251.4
36623.1
37763.8
48998.5
47682.5
44887
40484.3
32940.4
22293.7
2300.38
2334.06
2327.11
23612.3
29881.6
34927.1
38125.2
40077
41001.3
49007.2
47692.1
44893.2
40431.5
32862.7
22056.4
2300.39
2299.94
4809.43
23455.7
29705.2
34802.1
38045.4
40030.2
40964.9
49047.9
47726.5
44936.2
40187.4
33791.7
22202
4771.74
2299.31
5310.5
17914.7
29849.5
34694.3
37999.6
39994
40932.3
49144.6
47842.2
45060.7
40409.9
33815.6
22556.2
5856.33
2306.35
2303.39
16925
26032.5
34620.2
37912.5
39952.6
40912
49292.4
48049.4
45339.7
41105
34166.2
24426
10431.3
2275.62
2286.74
13548.1
24149.5
32020.8
37995.6
39999.5
40924.9
49462.7
48263
45640.7
41346.7
35057.1
25422.6
11500.3
2261.84
2271.21
13371.8
23254.6
32030.8
36059.1
40091.4
40978.6
49541.1
48371.6
45798
41581.6
35519.1
25583
11572.6
2271.12
2274.79
13376.7
23308
30783.7
36101.1
40133.6
40996.2
49564.6
48406.1
45884.8
41933.7
35597.4
25576.4
10699
2289.09
2278.44
13438.3
23379.9
30185.7
36152.4
40148.2
41006.8
49498.9
48329.9
45852.5
41909.9
35592.2
25613.5
10718.7
2285.22
2276.32
13453.3
23391.5
30190.3
36151
40120.8
40980
49377.4
48178
45689.3
41463.5
35498.2
25674.6
11727.7
2263.7
2271.19
13413.9
23344.2
30806.8
36102
40061.8
40942.3
49166
47921.6
45212.7
41188.3
34923.8
25399
11087.5
2263.97
2275.42
13447.7
23313.5
32041.1
37951
39942.9
40863.2
48976.6
47673.1
44891.8
40244.1
33850.6
23089.7
9336.36
2286.62
2288.7
14593.7
25946.4
34555.6
37841.3
39864.8
40818.7
48839
47517
44727.1
39986.1
33596.8
22405.2
5878.13
2297.19
2320.96
17223.6
29696
34564
37872.4
39864.2
40800.5
48758.6
47443.7
44643.8
40189.3
32628.5
21858.4
2300.25
2300.9
2767.53
22951
29425.3
34598.1
37863.4
39855
40792
48710.5
47395.1
44598.8
40202.3
32671.7
22053.9
2300.28
2345.93
2314.01
23212.1
29630.2
34693.8
37903.6
39861.8
40788.6
51897.3
50996.7
49052.5
46041.9
40596.3
36090
2560.08
21488.9
29096.2
37608.8
38426.1
41669.6
43520.2
44711.1
45290.3
51896.3
50984.8
49015.5
45873.8
40221.7
34405.4
2367.26
13962.7
25600.9
35973.5
37898.5
41412.7
43380
44634.9
45237
51924.6
50997.3
49059.7
45519.6
41152.6
30946.4
12806
5415.54
8124.44
27216.5
37697.6
40971
43247.6
44564.5
45184.9
52014.3
51096.1
49136.4
45936.1
39757.2
30032.6
11551.3
3712.02
2308.79
24410.5
33085.1
40882.8
43104
44505.8
45149.7
52169.3
51330
49524.1
45659.9
40380.6
31384.1
17111
2287.99
2295.23
19357.4
30862.1
38043.5
43249.2
44569.1
45171.4
52360.6
51607
49085.2
46106.1
40929.9
32617.8
21120
3680.83
2293.13
19428.4
29924.4
38246.1
41177.3
44715.4
45258.4
52455.1
51753.3
49259.2
46588.5
41393.8
33232.5
16757.3
2299.25
2297.72
19491.3
30246.7
36973.2
41331.3
44789.6
45291.2
52486.3
51800.5
49380.3
46386.7
41687.2
33634.7
16888.3
2295.69
2300.2
19779.9
30559.5
36369.1
41483.2
44820
45309.6
52407.2
51703.3
49329
46344.3
41661.2
33674
17094
2296.76
2299.31
19819
30586.2
36377.3
41456
44779.6
45276.7
52264.4
51507.5
49107.8
46348.4
41316.2
33390
18772.4
2302.72
2296.84
19709.1
30352.1
36990.5
41287.2
44691
45226.1
52027.4
51183
49365.5
45760.9
40647.8
32644.3
22571.7
2302.4
2292.62
19835.2
30112
38208
43232
44523
45115.5
51828.6
50905
48934.8
45716
39779.4
30556.3
15213.3
2277.94
2297.6
21134.3
33062.8
40848.7
43037.8
44423.8
45060.5
51696.5
50764.2
48816.6
45268
40887
30188.7
11282.1
4177.23
7354.18
25404.7
37586.1
40845.4
43123.1
44437.3
45055.5
51627.3
50711.1
48729.3
45571.3
39913.2
34005.9
2350.36
14480
25610.2
35822.4
37660
41207.4
43197.1
44460.2
45064.8
51588.4
50683.4
48727.7
45700.2
40247.4
35610.9
2444.59
22391.6
27104.2
37069.3
38121.6
41403.3
43291.4
44494
45076.9
56019.5
55652.9
54936.6
54535.9
53144.9
61510.2
82545.6
57726.5
59525
53273.1
49372.7
50042.4
49993.2
50242.7
50401.1
56001.9
55607.9
54833
54180
52427.1
59004.3
75318.8
56813.1
56947.6
51949.2
48780
49685.5
49806
50140.9
50329.7
56006.9
55576
54805.4
53257.4
52356.7
47819.2
49611.7
38884.7
37761.2
43075.6
48043.2
48873
49596.1
50023.3
50248.2
56069.5
55647.7
54773.7
53631.9
49151.2
44281.2
33630
10585.3
16052
39491
43721.8
48640.8
49395
49936.6
50182.8
56208.6
55873.1
55162.1
52418.7
50104.7
44140.4
29653.6
16790.4
10174.5
32924
41439.3
46157.2
49489.4
49990.8
50188.4
56398.2
56110.7
54177.3
53106.3
50441.6
46494.8
34418.3
12276.3
28088.8
33733.8
40893.9
46647.5
47717.9
50071.8
50266.6
56486.5
56246.4
54423.7
53726.2
51162.1
49851.7
42638.8
6972.13
6045.15
35306.7
42255.8
45823.8
48007
50137
50292.4
56515.4
56291.1
54576.6
53123.5
51868.6
51353.6
45007.4
2675.8
9269.8
37276
43380.6
45461.3
48190.1
50172.3
50311.5
56433.3
56189.2
54505.6
53046.9
51768.5
51219.6
44992.1
2452.57
10407.8
37280.5
43383.5
45455
48148.8
50126.9
50278.7
56292.3
55998.1
54223.7
53345.1
50881.7
49288.6
41603.4
6184.39
6509.92
35698.4
42327
45778.7
47924.7
50047.4
50235.7
56053.5
55707.3
54970.9
52564.4
49733.1
45581.6
31609.1
14557.6
62282.6
35428.3
41137.7
46444.9
49475.7
49949