/*--------------------------------*- C++ -*----------------------------------*\
| =========                 |                                                 |
| \\      /  F ield         | OpenFOAM: The Open Source CFD Toolbox           |
|  \\    /   O peration     | Version:  v2012                                 |
|   \\  /    A nd           | Website:  www.openfoam.com                      |
|    \\/     M anipulation  |                                                 |
\*---------------------------------------------------------------------------*/
FoamFile
{
    version     2.0;
    format      ascii;
    class       volScalarField;
    location    "0.004";
    object      p_rgh;
}
// * * * * * * * * * * * * * * * * * * * * * * * * * * * * * * * * * * * * * //

dimensions      [1 -1 -2 0 0 0 0];


internalField   nonuniform List<scalar> 
449343
(
89876.8
90058.6
90375.9
90732.9
90981.1
90965.9
90407.5
89244
87509.4
85394.3
83182.1
81148.3
79493.4
78338.5
77747.5
89880.1
90062.1
90379.7
90736.8
90984.7
90968
90408.9
89245.6
87512.5
85399.1
83187.8
81153.7
79497.7
78341.7
77750.2
89886.3
90068.8
90387
90744.1
90991
90971
90410.2
89247.3
87516.9
85407.2
83198.5
81164
79506
78348
77755.3
89894.6
90077.8
90396.7
90753.6
90998.7
90973
90410.3
89246.3
87519.8
85415.8
83212.3
81178.3
79517.5
78356.6
77762.2
89904
90087.9
90407.6
90764
91006.2
90972.6
90406.4
89242.5
87520.8
85424.8
83228.1
81194.9
79531
78366.5
77770.2
89912.8
90097.5
90418
90773.6
91013.6
90974.2
90404.5
89241.3
87524.1
85435.6
83244.4
81212.1
79544.7
78376.5
77778.1
89919.6
90104.8
90426
90781.4
91019.2
90977
90405.6
89241.4
87528.6
85446.3
83257.2
81226.8
79556
78384.8
77784.8
89923.1
90108.5
90430
90785.5
91022.5
90979.4
90403.5
89237.2
87524.8
85449.7
83263.7
81233.8
79561.8
78389.4
77788.9
89922.6
90107.8
90429.1
90784.7
91022.5
90980.6
90409.1
89245.5
87533
85451.5
83262.6
81232.2
79561.3
78390
77790
89918.7
90103.4
90424.1
90780.1
91020.5
90981.6
90412.6
89249.8
87533.1
85445.1
83254.2
81222.2
79554.8
78386.7
77788.3
89912.4
90096.5
90416.5
90773.3
91016.1
90983.6
90418.2
89255.2
87534.1
85438.7
83242.5
81209.6
79545.8
78381.3
77785
89905.3
90088.7
90408
90765.4
91011.2
90986.5
90424.8
89262.1
87536.7
85433.6
83230.6
81196.9
79536.2
78375.3
77781
89898.7
90081.5
90400.2
90758
91005.7
90987
90427.6
89265.9
87536.7
85428
83219.9
81185.8
79527.9
78369.9
77777.2
89893.8
90076
90394.2
90752.1
91000.8
90985.6
90427.9
89266
87534.2
85421.9
83211.4
81177.7
79521.9
78365.9
77774.3
89891.1
90073.2
90391
90748.8
90998
90984.3
90427.4
89265.4
87532.3
85418.3
83206.8
81173.4
79518.7
78363.7
77772.8
89673.5
89904.3
90323.6
90840.6
91287.9
91491.9
91087.5
89886.2
87920.3
85476.7
82965.4
80723.8
78947.2
77729.1
77112
89676.9
89908.1
90328.1
90845.6
91292.8
91495
91088.9
89888
87924.4
85483.5
82973.1
80730.2
78951.7
77732.2
77114.3
89683.4
89915.5
90336.9
90855.2
91302
91499.7
91090.6
89890.9
87931.6
85496.9
82988.9
80743.2
78960.5
77738
77118.7
89692.2
89925.6
90349
90868.3
91312.8
91502.6
91086.5
89884
87933.7
85510.6
83010.1
80761.7
78973
77746.1
77124.7
89702.3
89937.2
90363.1
90883
91324.3
91497.1
91075.2
89873.1
87920.4
85523.4
83035.6
80784.4
78988
77755.6
77131.7
89711.9
89948.6
90377
90898.1
91336.4
91500.7
91070.4
89869.7
87927.8
85536.8
83062.1
80809.2
79004
77765.3
77138.7
89719.4
89957.4
90388.2
90910
91343.2
91509.6
91072.9
89870.1
87934.5
85556.5
83095.9
80832.9
79017.4
77773.9
77144.8
89723.1
89961.6
90392.9
90916.1
91348.8
91512.4
91070.4
89815.2
87922.8
85557.6
83105
80841.7
79023.4
77778.8
77148.8
89722.5
89960.5
90391.4
90913.4
91346.4
91513.5
91076.6
89874
87939
85562.1
83101.8
80838.5
79022.9
77779.2
77150.2
89717.9
89954.7
90383.3
90904.8
91343.6
91508.3
91078.7
89878.7
87937.5
85546.8
83072.4
80819.7
79014.6
77775.9
77149.3
89710.9
89946.1
90372.2
90892.6
91334.5
91508.4
91087.5
89886.7
87934.4
85538.3
83051
80799.9
79003.5
77771.1
77147.1
89703.2
89936.7
90360.6
90880.5
91325.8
91516.4
91101.7
89900.5
87951.9
85529.5
83029.6
80781.4
78992.7
77765.7
77144.3
89696.2
89928.5
90350.4
90869.6
91317.2
91516.3
91108.6
89910.5
87952.6
85518.9
83011.6
80766.2
78983.5
77761
77141.6
89690.9
89922.4
90343
90861.3
91309.5
91513.2
91108.8
89909.6
87947.5
85507.8
82998.2
80755.6
78977
77757.5
77139.5
89688.2
89919.3
90339.1
90857
91305.4
91511.1
91108.3
89908.9
87944.6
85502.2
82991.7
80750.4
78973.8
77755.6
77138.4
89163.6
89506.4
90160.2
91052
92006
92763.6
92823.7
91526.4
88938.6
85631.5
82383.5
79665.2
77619.9
76264.5
75591.1
89167.1
89510.7
90166.1
91059.5
92014
92769.8
92826.1
91530
88946.1
85643.6
82395.5
79673.4
77624.4
76266.9
75592.5
89174
89519.3
90178.1
91075.3
92030.8
92781.4
92824.8
91534.9
88959
85671.7
82423.8
79691.5
77633.8
76271.5
75595.2
89183.6
89531.6
90195.6
91098.3
92054.9
92790
92808.7
91533.3
88949.7
85701
82469.1
79720.7
77647.5
76277.8
75598.7
89194.7
89546.4
90217.4
91125.9
92075
92776
92733.4
91444.8
88893
85737.8
82518.7
79755.5
77665
76285.5
75602.6
89205.7
89561.6
90240.4
91152.6
92101.5
92770.4
92717.6
91442.2
88906.5
85767.3
82588.3
79797.4
77683.6
76293.8
75606.8
89214.2
89573
90256.7
91181.1
92114.5
92790.8
92712.6
91435.4
88912.8
85791.9
82710.5
79839.6
77703.3
76301.9
75610.9
89218.6
89579
90264.1
91191.9
92128.8
92813.6
92750
91348.7
88905.2
85795
82721.6
79850.6
77710.8
76307.6
75614.8
89217.3
89576.2
90260
91184.7
92117.9
92794.7
92717.1
91441
88918.3
85797.9
82716.5
79845.5
77708.9
76307.5
75616.7
89212.1
89568.1
90247.2
91159.8
92109.4
92778.8
92726.1
91451.6
88917
85778.5
82600
79809.3
77695.4
76305.6
75618.5
89203.9
89555.8
90227.1
91136.3
92086.1
92788.1
92746.7
91459.8
88910
85755
82536.1
79773
77682.3
76302.6
75619.7
89195.2
89543.4
90207.9
91111.4
92069
92804.7
92825.5
91551.8
88969.8
85722.5
82491.2
79742.9
77669.6
76299.6
75620.3
89187.6
89533.2
90192.5
91090.6
92047.4
92799
92844.9
91557.4
88983.1
85696.9
82449.8
79717.6
77659.5
76297
75620.5
89182
89526
90181.9
91076.4
92032.2
92789.2
92847.8
91554.3
88972.5
85671.6
82424.2
79702.2
77652.9
76295
75620.4
89179.2
89522.3
90176.8
91069.6
92025
92784
92846.6
91552
88966.5
85660.9
82413.6
79695.4
77649.7
76294
75620.3
88211.8
88718.2
89724.6
91209.1
93054.4
94926.6
96197
94737.5
90758.1
85642.9
81131.5
77726.6
75340.3
73826.9
73094.9
88215
88722.7
89731.8
91220
93068.1
94938.7
96196.1
94744.5
90768.4
85662.7
81148.7
77735.1
75343.2
73827.4
73094.4
88221.2
88731.9
89747.3
91245.6
93100.9
94965.3
96203.2
94766.5
90814.7
85726.9
81194
77755.5
75349.7
73828.4
73093.4
88230.1
88745.4
89772.2
91288.8
93150.5
95011.7
96071.5
94793.7
90787.4
85866.1
81292.5
77792.6
75359.9
73829.4
73091.4
88240.8
88762.8
89804.9
91340.8
93219.9
94989.5
95186.5
94353.9
91382
85990.2
81397.4
77843.8
75372.3
73829.4
73088.2
88251.9
88781.9
89847
91422.6
93288.8
94155.1
95105.8
94337.6
91431.3
87144.1
81579.1
77909.6
75390.5
73829.9
73085.1
88260.3
88797.7
89876.4
91474.2
92647.8
94211.1
95088.7
94308.4
91413.1
87183.5
82796
77953.2
75403.5
73831.6
73083
88264.4
88806
89890.7
91490.8
92647.1
94242.9
95127.1
94219.7
91411.1
87200.5
82781.7
77964.7
75421.9
73840.2
73084.7
88263.7
88801.1
89879.8
91478.1
92642.9
94229.2
95099.9
94296
91420.6
87197
82790
77959.4
75408.9
73837.5
73089.6
88258.9
88789.1
89854.6
91430.7
93297.1
94175.2
95097.9
94322.2
91419.2
87185.8
81593.8
77923.9
75404.6
73843.7
73098.5
88250.9
88773
89815.5
91352.1
93232.3
95003.5
95191
94362.7
91427.9
86010.4
81418
77864.4
75392.4
73849
73107.7
88242.8
88758.4
89785.7
91303.2
93166
95027.5
96091.9
94816.8
90812.9
85892.8
81319.5
77819
75385.7
73854.7
73116.3
88236
88747
89763.1
91262.3
93119.1
94985.3
96225.2
94792.6
90843
85757.6
81225.4
77786.5
75379.9
73857.9
73122.6
88231.2
88739.3
89749.1
91238.4
93088.1
94960.6
96220.9
94773.4
90800.6
85697.4
81183.9
77769.6
75376.7
73860
73126.6
88228.8
88735.6
89742.7
91228.4
93075.4
94949.6
96223.2
94768.3
90792.1
85679.3
81168.5
77762.7
75375.4
73861.2
73128.6
86613.9
87300.2
88715.1
90944.3
94071.7
98066.8
102189
100185
93558
84858.9
78535.5
74499.2
71892.2
70319.2
69584.7
86615.2
87303.1
88721.4
90957.1
94091.6
98088.7
102197
100196
93590.7
84899.2
78557.3
74503.6
71890.2
70315.9
69581.1
86618
87309.5
88736.3
90989.9
94153.4
98153.4
102227
100221
93668
84977.2
78603.5
74511.2
71885.6
70308.8
69573.5
86621.9
87319.5
88763.2
91070.2
94325.7
98304.3
99913.3
100289
95105
85515.5
78811.8
74551.7
71880.7
70298.4
69561.7
86626.2
87331.6
88803.8
91160.3
94481.6
96785.6
99939
100231
95214.5
87597.1
78969.2
74577.8
71867.1
70277.8
69544
86631.8
87353.1
88872.1
91380.6
93607.5
96974.2
99988.4
100123
95189
87794.9
81089.9
74665.3
71849.4
70263.9
69526.9
86633.2
87356.3
88880.8
90797.7
93665.9
97084
99017.2
99362.3
95394.6
88724.3
81302.4
76487.5
71791.4
70231.1
69507.9
86638.4
87368.1
88952
90796.9
93709
97116.7
99051.4
99350.4
95429.6
88783.2
81397.8
76553.6
71911.9
70229.9
69511.9
86636.6
87359.9
88884.2
90785.9
93699.6
97110
99031.9
99359.6
95407
88782.3
81382.5
76546
71797.4
70238.4
69515.6
86639.8
87361.5
88881
91390
93617.1
97019.2
99052
99370.7
95398.2
87859.2
81187.3
74682.7
71866.9
70280.9
69542.6
86637.2
87342.9
88815.5
91172.8
94495
96845.8
99944.9
100131
95165.5
87744.5
78995.1
74603.2
71891.4
70300.2
69566.8
86636
87334
88778.4
91086.4
94343.5
98324.3
99911.4
100297
95238.1
85549.9
78845.8
74584.3
71911.6
70328.6
69590.8
86634.5
87326.4
88753.9
91008.5
94173.4
98176
102252
100268
93704.4
85017.3
78643.2
74549.2
71921.7
70343.7
69607.8
86633.2
87321.5
88740.7
90977.6
94113.9
98113.5
102223
100239
93632.4
84945.3
78602.4
74546.4
71930.7
70354.6
69618.9
86632.7
87319.5
88735.3
90965.7
94095
98092.9
102217
100225
93601.4
84907.3
78582.8
74544
71934.6
70359.8
69624.4
84108.2
84928.5
86681.3
89628.2
94219.6
101446
107520
113944
101617
81199.8
73436.7
69439.6
66993.1
65627
65022.8
84105.7
84927
86682.5
89637.3
94245.3
101474
107530
113946
101626
81227.3
73445.5
69429.5
66982.3
65618.9
65015.5
84100.4
84924.1
86685
89647.3
94288.9
101552
107556
113944
101610
81194
73411
69380.9
66952
65597.6
64999
84092
84922.6
86699.8
89718.5
94675.2
99421
107737
114036
101535
85378.9
73538.8
69282.7
66910.5
65570.7
64974.1
84078
84907.2
86693.5
89804.4
93482.8
99704.7
108025
111473
102662
86147.3
76735.4
69193.8
66782.1
65507.2
64935.3
84068.7
84894
86764
89436.5
93640
98821.5
106201
110415
102726
88321.4
76879.4
71584.3
66680
65431.7
64893.4
84054.2
84868.8
86769.6
89496.2
93803.9
98844.4
105286
110344
103099
89231.1
78551.2
71626.7
66573.1
65360.2
64854.9
84044.2
84842.4
86814.7
89568.2
93185
98376.4
105311
110324
103073
89234.2
78542.8
71646
68562.2
65298.3
64841.7
84058.1
84873.5
86775.5
89540.1
93181.2
98850.2
105313
110327
103080
89244.3
78551.7
71613.4
66586.6
65369.8
64863.5
84078
84903.6
86773.6
89438.1
93770
98857.7
105273
110360
103118
89263.8
78597.4
71650
66697.6
65450.5
64912
84090.2
84919.6
86706.6
89819
93505.9
99828.4
106121
111403
102736
88245.3
76894.3
69227
66813.2
65535.5
64962.4
84108.1
84939
86717.4
89736.9
94695.2
99489.1
107808
114071
101564
85584.8
73582.3
69323
66947.5
65605.5
65008.4
84118.8
84943
86704.9
89668.6
94311
101575
107612
113964
101638
81251.2
73463.4
69428.8
66995.3
65639.9
65039.6
84125.9
84947.8
86704.4
89660.6
94270.1
101500
107564
113981
101690
81292.7
73504.8
69483.5
67032.2
65665
65060.2
84129.4
84950.2
86704.1
89652.4
94245.3
101474
107554
113987
101679
81269.6
73499
69496
67044.5
65675.5
65069.6
80452.2
81266
83049.8
86202.1
91367.5
98382.7
114960
145817
107829
74921.1
63820.1
61732.5
60391.6
59746.6
59477.7
80444.6
81257.7
83040.3
86191.8
91364.7
98385.2
114944
145806
107826
74910.5
63791
61694.7
60372.3
59734.8
59468.6
80426.1
81234.4
83009.7
86136.1
91274.9
98380.9
114872
145763
107802
74886.2
63663.1
61599.4
60318.1
59701.7
59446.5
80396.9
81200
82965.9
85947.9
90726.6
98796.3
114899
145592
107552
74925.4
67171
61246.3
60220.5
59645.4
59411.2
80346.9
81126.6
82796.2
86053.8
90774
97952
112104
145505
108409
78637.1
66851.6
63582.6
59952.2
59550.5
59355.5
80291
80991.1
83330.1
86138.2
90555.9
97938.2
110718
140467
112760
80547.3
69032.6
63382.2
61785.7
59398.6
59293.9
80268.2
80962.5
83345.9
86154.3
90597.5
97552
110626
140364
112738
80554.4
70223.6
64980.3
61709.5
59361.2
59263.8
80233
80930.5
83413.9
86189
90603.3
97535.5
110590
140330
112772
80579.1
70215.7
64961.4
61719.3
59358.8
59222.1
80271
80965.8
83366.7
86207.6
90626.6
97540.2
110594
140334
112775
80586.4
70227.7
64984
61687.7
59372.7
59273.1
80301.9
81003
83362.9
86133
90618.7
97561
110642
140382
112764
80576.4
70242.9
65014.2
61772
59421.6
59316
80360.3
81140.1
82811.5
86077.4
90801.9
97998.2
110749
140501
112796
80580.6
69199.2
63524
59988.1
59583.5
59387.1
80415.3
81218.6
82986.3
85968.7
90647.4
98735.2
112185
145509
107789
78916.8
67131.7
61295.4
60265.7
59687.6
59451.5
80446.7
81255.7
83032.6
86161.3
91300.9
98431.2
114898
145692
107823
74973.8
63732.9
61659.3
60372.7
59751.4
59493.8
80467.5
81281.4
83065.3
86218.4
91392.8
98426.8
114952
145811
107906
75023.5
63869
61762.3
60431.7
59789.4
59520.7
80476.2
81290.7
83075.8
86230
91396.6
98411.8
114982
145845
107929
75007.8
63902.7
61803.6
60454.3
59803.8
59532.3
75547
76114.8
77333.4
79442.4
82663.1
89435.6
96570.7
92571.6
21959.7
46887.1
49829.9
51439
52408.4
53017.2
53278.3
75537
76102.4
77316.9
79415.8
82642
89408.5
96548.4
92483.1
21929.6
46873.1
49756.7
51402.8
52397.3
53010.3
53273.8
75509.7
76064.1
77270.1
79379.2
82554.3
89329.9
96469.2
92405.1
21952.6
46871.6
49670.4
51373.8
52370
52990.7
53262.5
75463.7
75991
77181.5
79134
83853.8
88967.9
96234.5
92260.8
22009.6
46964.8
51365.8
51395.3
52328.2
52951.6
53245.5
75385.2
75874.4
76968.3
80318.6
83651.8
89433
97101.7
92087.7
23044.5
50345.7
52940.1
53001.2
52306.9
52922.3
53218.4
75283.1
75748.6
78218.9
80234.8
84151.4
89702.8
96909.9
91816
23310.8
50702.6
53913.7
53020.4
53736.8
52934.6
53192.5
75258.8
75709.8
78233.4
80179.2
84418.5
89647.2
96805
91676.9
23911.9
50847.1
54032.5
54114
53683.6
52970.3
53206.1
75239.9
75680
78209.6
80829.1
84426
89622.6
96758.8
91558.5
24036.4
50911.6
54083.2
54750.4
53703.1
52997.5
53195.4
75263.8
75714.5
78212.8
80823.1
84429.9
89627.5
96764.1
91582.7
24075.1
50924.3
54091.5
54755.9
53674.3
52983.6
53218.1
75295.2
75760.1
78248.2
80193.1
84425.3
89662.9
96822.8
91694
24003.3
50876.1
54054.2
54137.7
53710.4
52959.5
53217.1
75401.1
75891.8
76988.8
80294.3
84183
89726.9
96941.8
91849.1
23242.7
50723.5
53937.3
52985.6
52347.5
52960.1
53254.5
75483.9
76012.2
77203.3
79159.5
83801.2
88714.3
96026.5
92164.2
22846.4
48833.7
51315.7
51455.4
52383
53000.7
53291.9
75533.3
76088.8
77297.3
79408.9
82585.5
89170
96341.7
92293.1
22167.4
46963.5
49756.3
51448.8
52434.2
53047.9
53316.7
75562.8
76129.4
77345.7
79447.1
82676.5
89412.3
96522.6
92429.4
22130.7
47011.1
49859.6
51484.4
52467.1
53073.2
53333.3
75574.2
76143.1
77363.7
79475.8
82698.9
89461.1
96584
92498.7
22144.3
47029.8
49937.2
51525.2
52482
53083.2
53340.6
69602.8
69707
69885.6
70133.4
70700.9
75196
78952.7
91614.7
3958.62
26687.4
36218.6
41237.1
44456.6
46300.6
47108.9
69597.1
69699.3
69877.7
70124.5
70712.2
75175
78930.3
91415.5
3961.41
26685.9
36171.6
41248.6
44470.2
46308.1
47116.6
69582.2
69677.3
69854.1
70141.4
70721.4
75105.6
78860.3
91355.2
4173.58
26736.8
36189.2
41296.7
44500.5
46331.1
47134.6
69556.6
69626.8
69815.3
70246.4
73421.9
75078.3
78680.2
91235.9
3122.76
26962.9
36965.5
41613
44585.9
46377.2
47171.5
69509.7
69555.8
69808.8
72263.5
73527.4
76845.9
79720.7
91223
2255.14
27230.7
37854
42767.9
44823.7
46476.5
47227.1
69447.3
69558.4
71507.8
72250
74787.1
77638.9
79616
90919.7
2266.49
27602
38347.2
42904.9
45802.6
46659.1
47292.4
69442.9
69548.2
71492.1
72235.8
75440.1
77567.2
79545.2
90857
3761.3
27798.8
38474.6
43439.3
45843.2
46730.3
47343.2
69436
69533.4
71459.2
73302.1
75411.1
77537.3
79515.1
90774.9
2862.41
27811.7
38532
43737.7
45899.5
46767.2
47352.6
69450
69555.3
71462.6
73292
75417.4
77543.7
79521.4
90813.4
4538.27
27841.7
38542.2
43746.2
45889.1
46745.3
47357.4
69459.6
69570.3
71493.1
72267.6
75443.1
77587.9
79565.7
90872
4841.36
27836
38499.8
43476.9
45843.1
46685
47318.2
69528.1
69576
69830.9
72262.8
74842.4
77682.4
79649.4
90946.1
2363.32
27638.9
38364.4
42852.8
44870.6
46519.2
47267.3
69579.5
69651.5
69844.1
70280.5
73544.7
75243.8
78917.5
91271.8
2364
27252.1
37240.2
41683.3
44648.2
46431.8
47222.9
69608.7
69705.3
69884.6
70175.4
70763.1
75121.2
78800
91276.5
3326.1
26907.5
36291.5
41384.8
44572.5
46394.6
47194.6
69626
69730
69911.8
70163.7
70757.7
75188
78922.5
91392
4308.46
26852.8
36288
41340.4
44548.4
46377.9
47182.2
69632.9
69739.1
69921.5
70174.5
70748.2
75236.3
78981.5
91450.3
4251.72
26863.3
36342.2
41336.6
44539.5
46373.7
47177.6
63222.6
62817.9
61975.6
60666.5
61191.3
61338.6
64612.6
2202.97
19125.5
28219
34077.6
38219.2
40710
41863.4
63229.2
62823.7
61983.7
60675.7
61196.7
61332.3
64601.7
2218.51
19112.4
28214
34125.3
38247.6
40729.5
41881.6
63243.7
62839.1
61993.5
60692.3
61287.9
61355.9
64562.5
2229.66
18965.2
28281.7
34169.8
38298.2
40778.1
41919.9
63271.9
62863.1
62012.9
60871.1
61759.9
61344.8
64423.8
2238.43
19030
28289.4
34454.8
38412.9
40874.3
41992
63307.5
62896.4
62200.9
63088.1
62276.5
63319.7
65015.3
2269.99
17492.8
28250.8
34878
38585.3
41015.6
42092.6
63335.4
63049.6
63947.5
63306.6
63707.1
64255.8
64972.6
2265.81
17534.8
28260.8
34965.1
39124.8
41152.4
42213.6
63371.6
63099.3
63908.7
63398.5
64502.8
64296.7
64969.9
2278.59
17592
28338.1
35148.3
39189.8
41208.3
42261.1
63375.9
63108.6
63903.2
64383.7
64572.8
64312.3
64971.9
2292.79
17606.8
28374.6
35264.2
39193.5
41244.8
42274.6
63379
63107.4
63894.9
64393.6
64578.8
64318.2
64980
2305.05
17627.6
28386.7
35272.4
39193.2
41224.6
42277.8
63348.5
63063.5
63906.8
63417.1
64516
64314.6
64994
2301.33
17641.1
28370.4
35175.4
39202.9
41181.5
42240.7
63327.4
62918.6
62226.5
63130.8
63703
64285
65011.2
2319.71
17604.2
28310.8
34947.7
38635.5
41061
42136.8
63296.6
62889.6
62044.7
60910.9
61955.2
61526.8
64283.9
2328.81
18110.7
28468.9
34529
38477.9
40932.3
42046.4
63272.1
62869.9
62028.4
60733.5
61427.1
61400.9
64548.6
2363.36
19046.5
28392.1
34264.2
38374.2
40845.7
41984.2
63260.5
62857.6
62023.1
60723.9
61326.2
61410.2
64642.6
2391.85
19250.8
28338.1
34222
38330.3
40803.4
41951
63255.1
62853.2
62016.8
60715.6
61238
61402
64675.4
2400.14
19321.4
28349.5
34184.2
38307.1
40787.5
41936.2
57195.2
56312.9
54482.8
51420.4
50251.3
45420.8
43213.7
2932.43
2190.02
16177.7
24272.1
30139.4
34347
36959.2
38222
57213.9
56330.7
54499.7
51434.1
50254.6
45415.9
43215.3
2981.46
2203.43
16232.3
24275.9
30181.7
34367.9
36978.5
38240.1
57252.1
56372.2
54529.6
51418.5
50276.2
45408.5
43212
3040.67
2217.09
13954.7
24362.9
30222.3
34405.6
37018.9
38275.1
57320.7
56448.7
54550.4
51523.3
50354
45418.9
43236.5
3235.01
2259.04
14300.3
23360.8
30303.7
34463.4
37095.5
38333.6
57423
56549.1
54737.5
54160
50635.2
47960.9
45009.2
3158.92
2288.12
13119.2
22816
29899.8
34521.7
37189.4
38408.5
57521.4
56763.2
56575.9
54367.7
52353.1
49190.2
45194.9
2971
2290.9
13130.9
22565.6
29945.4
34476
37222
38500.8
57584.2
56831
56615.1
54423.9
53189.9
49279.6
45274.6
3188.48
2289.27
13147.2
22605.4
29723.3
34544.4
37241.7
38531.8
57599.5
56860
56629.9
55551.6
53282.2
49322.6
45298.9
3163.86
2303.87
13144.1
22629.5
29635.5
34557.1
37268.5
38544.2
57591.9
56838.1
56622.9
55569
53288.2
49329.9
45312.4
3250.54
2300.1
13163.7
22642.3
29645.5
34563.8
37258.2
38548.7
57535.7
56783.4
56613
54442.1
53228.4
49301.3
45311.7
3256.38
2261.77
13199.7
22640.8
29758.2
34565.3
37256
38536
57442.6
56569.6
54768
54243.1
52357.4
49216.6
45246.9
3270.1
2290.57
13199.5
22631.8
29959
34574.3
37238.5
38452.3
57345.5
56475.8
54583.6
51569.2
50407.5
45584.5
43441.3
3319.35
2286.46
13749.6
23465.1
30379.3
34529.2
37152.4
38388.7
57280.7
56404.6
54568.8
51471.7
50321.8
45481.7
43313.4
3336.5
2359.32
14180
24470.8
30311
34480.2
37086.4
38339.5
57245.6
56366.2
54543.9
51493.6
50338.7
45501.5
43322.7
3236.98
2374.75
16382.2
24407.3
30283
34452.3
37054
38311.2
57228.1
56349.9
54528.4
51481.5
50322.9
45518.1
43330.1
3191.06
2386.52
16314.6
24409.6
30244.6
34434.1
37037.8
38296.2
52226.2
50901.4
48119.7
43313.4
35472.6
29401.2
11671.9
2281.67
2204.83
15840.5
22586
28418.3
32550.4
35129
36397.1
52251.4
50925.4
48138.4
43331.8
35473.3
29379.4
11668.9
2284.47
2217.64
15875.7
22579
28443.5
32555.7
35140.5
36407.4
52301
50977.5
48179.6
43321.1
35397.7
29167.2
11604.8
2287.49
2226.75
13842.1
22670.9
28482.1
32569.2
35159.7
36424.4
52382.5
51078.5
48214.5
43454.3
39866.9
29152.2
11706
2279.67
2259.32
13047
20961.9
28422
32573.7
35194
36451.3
52504.5
51208.2
48338.1
46447.4
40056.1
32739.7
17540
2287.38
2290.22
11155.4
20128.6
27311.1
32565.2
35247.4
36485.1
52635.9
51343.8
50454
46541.5
42254.8
34514.9
18574.8
2289.48
2306.46
11091.9
19707.5
27285.2
31911.4
35243.5
36540.6
52700.3
51407.2
50523.3
46525.7
43231.9
34623.2
18681.3
2289.29
2298.24
11137
19721.2
26762.2
31934
35246.9
36556.8
52719.1
51441.5
50551.3
47994.6
43232.2
34670.4
18714.5
2288.44
2304.04
11164.4
19740.4
26522.6
31949.9
35265.2
36569.6
52707.4
51414.9
50546.4
48006.5
43237.9
34679.6
18730.5
2288.55
2287.62
11178
19753.2
26535
31964.2
35264.6
36573.6
52648.8
51357.4
50528.4
46541.3
43260.7
34649.8
18729.6
2289.44
2313.67
11167.8
19758.3
26810.4
31976.2
35278.2
36575.4
52521.7
51228.3
48366
46634.8
42269.4
34551.9
18637.2
2289.17
2305.52
11164.5
19782.5
27340
32619.7
35298
36531.5
52404.4
51105.5
48249
43503.7
40043.1
29550.6
13336.4
2286.59
2283.63
11881.9
21061
28504.1
32641.9
35253.8
36508.8
52326.8
51007.8
48221.1
43377.9
35481.9
29320.2
11801.6
2282.77
2365.03
13746.7
22769.5
28564
32643
35228.2
36489.3
52279.9
50959.2
48182.7
43396
35568.9
29428.1
11802.5
2290.83
2377.92
16006
22691.3
28530
32634.8
35213.5
36477.2
52256
50936.5
48166.1
43380.1
35572.6
29525
11871.2
2284.91
2387.11
15942.8
22707.9
28508
32632
35204.6
36469.3
48937.1
47339
44001.4
38437.9
30099.7
20937
2172.2
2277.08
2187.95
14349.7
22517.7
28522.6
32543.5
35069.4
36307.4
48965.5
47369.1
44025
38474.6
30199.9
21005
2191.79
2285.73
2203.08
14335.8
22503.9
28519.5
32534.2
35072.6
36309.2
49022.1
47429.7
44071.5
38490.4
30108.3
22461.3
2211.79
2290.08
2228.11
12763.2
22832.3
28533.1
32535.8
35078.7
36312.4
49112.8
47561.1
44191.9
38716.6
33480
22396.4
2235.82
2289.65
2528.22
12457.1
20527.4
28442.9
32520.4
35084.7
36320.7
49243
47729.7
44418.9
41207.6
33772.8
24773.4
10880
2289.64
2291.58
10592.6
19436.8
26787.3
32510.9
35126.5
36337.1
49390.7
47866
46134.9
41413.2
35603.5
26035.1
11085.1
2290.08
2288.32
10469.4
18870.7
26737.7
31341.1
35132.5
36382
49459
47931
46280.6
41505.4
36472.4
26152.6
11169.2
2290.43
2292.94
10451.6
18867.6
25945.7
31348.2
35141.4
36395.2
49482.2
47966.7
46340.7
42722.5
36492.2
26202.7
11197.2
2290.91
2293.13
10519.2
18886.8
25578.6
31366.1
35158.1
36411.7
49464
47936.9
46337.2
42726.3
36497.5
26212.3
11216.4
2290.79
2296.1
10525.3
18900.9
25593.1
31387.4
35160.5
36413.2
49398.4
47874.2
46281.7
41498.4
36491.5
26178.1
11205.9
2290.32
2294.26
10489.5
18910.8
26006.3
31406.3
35172
36417.5
49255.2
47744.9
44442.2
41440
35605.5
26077.8
11148
2289.96
2287.63
10554.6
18957.2
26819.4
32568.9
35177.6
36385.5
49128.4
47581.2
44221
38761.3
33688.5
22737.8
10255.6
2289.74
2291.78
11366.5
20624.3
28524.2
32590.7
35146.6
36379.9
49040.1
47451.9
44103.9
38539
30185.3
22692.6
2400.75
2293.64
2373.56
12981.6
22928.2
28614.4
32608.5
35146.4
36376.9
48985.5
47394.4
44061
38532.3
30294.1
21142.5
2415.7
2295.4
2397.39
14486.7
22579.8
28592.8
32606.7
35141.3
36376.3
48958.1
47365.4
44039.2
38498.8
30196.5
21084.7
2433.12
2278.39
2410.44
14550.8
22609.9
28598.3
32618.3
35139.7
36375.9
47791.5
46215.5
42929.7
37739.9
28968.1
19455.5
2223.5
2301.52
2185.39
16724.5
24754.4
30513.3
34323
36695.9
37836.3
47821.6
46251
42965.4
37756.5
29147.5
19437.6
2232.98
2272.41
2201.01
16695.8
24673
30467.7
34297.1
36688.3
37830.6
47883.1
46315.4
43023.2
37629.8
30180.9
19358.8
2215.09
2286.22
2222.57
13745.9
24977.7
30480.6
34303.2
36688
37826.8
47988.4
46464.5
43182.3
37814
32000.6
19885.8
2360.78
2277.15
2275.47
13405.8
21987
30417.3
34278.4
36680.4
37830.8
48137.8
46675.1
43445.7
39473.1
31978.1
22473.1
9373.39
2288.47
2296.79
11161.3
20599.5
28273.2
34309.3
36730.9
37851.8
48313.7
46852.4
44504.6
39665.2
33256.7
23418.3
9515.61
2286.09
2288.92
11023.9
19891.8
28241.3
32711.4
36773.6
37903.5
48395
46943.7
44647.4
39805
33905.5
23529.1
9607.31
2285.84
2289.89
11039
19901.6
27206.8
32735.4
36802.6
37924.6
48427
46986
44726.9
40636.9
33940.8
23559.5
9541.3
2290.5
2288.8
11067.5
19933.2
26721.4
32767.6
36824.6
37947.1
48396.7
46946.5
44722.7
40637.2
33949.3
23576.2
9564.01
2289.62
2291.25
11096.5
19953
26739.7
32791.3
36825.3
37945.1
48315.4
46855.6
44626.7
39791.1
33929.8
23563.5
9614.25
2285.56
2290.87
11089.6
19960.1
27277.9
32799.8
36816.8
37941
48140.9
46680.6
43457.8
39677.8
33257.1
23462.7
9545.13
2286.65
2291.93
11139.4
19997.5
28341.5
34375.1
36785.8
37903.1
47992.1
46471.2
43195.9
37843.3
32009.4
20983.7
8954.02
2290.61
2303.13
12041.1
22101.3
30499.8
34351.3
36744.7
37891.5
47887.4
46322.7
43038.2
37659
30232.9
19721.1
2423.76
2327.81
2393.95
13784.9
25054.3
30555.3
34373.6
36754.4
37890.7
47826.9
46260.5
42980.7
37797.3
29201
19608.1
2353.95
2330.45
2404.53
16709.6
24716.9
30528.5
34361.4
36752.5
37894.9
47797.2
46225.6
42945.9
37783.9
29031.2
19636.7
2364.02
2312.03
2415.84
16785.6
24804.4
30578.3
34388.7
36760.5
37901.2
48861.2
47545.1
44749.6
40346.9
32803
22156.4
2227.2
2206.22
2194.38
23475
29744.3
34789.7
37987.9
39939.7
40864
48889.5
47574.4
44775.5
40313.8
32745
21938.7
2237.56
2211.22
4691.78
23337.9
29587.5
34684.4
37927.7
39912.4
40847.2
48949.8
47628.4
44838.1
40089.3
33693.6
22099
4668.74
2255.39
5207.51
17811.7
29751.4
34596.2
37901.5
39895.9
40834.2
49066.1
47763.7
44982.2
40331.4
33732.2
22472.9
5772.94
2221.12
2275.32
16841.6
25949.1
34541.7
37834.1
39874.1
40833.5
49233.5
47990.5
45280.8
41041.2
34102.5
24359.8
10363.8
2275.26
2285.03
13480.7
24083.3
31957.1
37936.7
39940.6
40866.1
49423.5
48223.7
45596.5
41302.5
35010.5
25374.8
11452.4
2261.49
2270.22
13324
23206.8
31986.7
36015
40052.1
40939.4
49521.5
48352
45773.4
41557.1
35490.9
25554.8
11544.4
2270.8
2274.37
13348.5
23279.8
30756.7
36076.6
40114
40976.6
49564.6
48406.1
45879.9
41926.3
35588.8
25567.8
10690.4
2288.87
2278.25
13429.7
23371.3
30177.2
36147.5
40148.2
41006.8
49518.5
48349.6
45867.2
41922.2
35603.2
25624.6
10729.8
2285.39
2276.55
13464.4
23402.6
30201.3
36165.8
40140.4
40999.6
49416.7
48217.3
45723.6
41497.8
35528.9
25705.3
11758.4
2263.92
2271.5
13444.5
23374.9
30838.7
36136.4
40101
40981.5
49224.9
47980.5
45271.6
41242.3
34975.3
25449.3
11137.8
2264.24
2276.62
13498
23363.8
32095
38009.9
40001.8
40922.1
49055.1
47751.6
44970.2
40322.6
33924.2
23163.3
9407.48
2287.14
2292.26
14664.8
26020
34634.1
37919.7
39943.3
40897.1
48937.1
47615.1
44825.2
40084.2
33694.9
22498.4
5971.33
2389.84
2410.05
17316.8
29794.1
34662.1
37970.5
39962.3
40898.6
48876.4
47561.4
44761.6
40307.1
32746.2
21976.1
2362.83
2393.59
2884.96
23068.7
29543.1
34715.8
37981.1
39972.8
40909.8
48847.9
47532.4
44736.2
40339.6
32809.1
22191.3
2373.04
2472.93
2442.15
23349.4
29767.5
34831.2
38041
39999.1
40925.9
51760
50859.3
48915.1
45904.6
40458.9
35952.6
2426.26
21351.5
28958.9
37471.5
38288.7
41532.3
43382.8
44573.8
45153
51778.5
50867.1
48897.8
45756.1
40103.9
34287.7
2258.37
13844.9
25483.2
35855.8
37780.8
41295
43262.3
44517.2
45119.2
51826.5
50899.2
48961.6
45421.5
41054.5
30843.4
12703
5312.55
8021.43
27113.5
37599.5
40872.9
43149.5
44466.4
45086.8
51935.8
51017.6
49057.9
45857.6
39673.8
29949.2
11468
3626.18
2261.2
24327.1
33001.7
40804.4
43025.5
44427.3
45071.2
52110.5
51271.1
49465.2
45596.2
40316.9
31317.9
17043.5
2284
2282.19
19289.9
30795.9
37979.7
43190.3
44510.3
45112.5
52321.4
51567.8
49041
46061.9
40883.3
32570
21072.1
3633.28
2286.09
19380.6
29876.6
38201.9
41133.2
44676.2
45219.1
52435.5
51733.7
49234.6
46564
41365.6
33204.3
16729.1
2296.91
2293.44
19463.1
30218.5
36946.2
41306.8
44769.9
45271.5
52486.3
51800.5
49375.4
46379.3
41678.7
33626.1
16879.7
2295.62
2298.73
19771.3
30550.9
36360.5
41478.3
44820
45309.6
52426.8
51722.9
49343.7
46356.5
41672.3
33685.1
17105.1
2296.85
2301.06
19830
30597.2
36388.3
41470.7
44799.2
45296.3
52303.7
51546.7
49142.1
46382.8
41346.9
33420.6
18803.1
2305.61
2301.32
19739.7
30382.8
37022.4
41321.6
44730.2
45265.3
52086.3
51241.9
49424.3
45814.8
40699.3
32694.5
22621.9
2307.66
2299.76
19885.5
30162.3
38262
43290.9
44581.8
45174.4
51907.1
50983.5
49013.3
45794.5
39853
30629.9
15284.4
2280.02
2314.27
21205.4
33136.4
40927.2
43116.3
44502.3
45139
51794.6
50862.3
48914.7
45366.1
40985.1
30281.9
11375.3
4270.41
7447.38
25497.9
37684.2
40943.5
43221.2
44535.4
45153.6
51745
50828.8
48847
45689
40030.9
34123.6
2456.56
14597.7
25727.9
35940.1
37777.7
41325.1
43314.9
44578
45182.5
51725.8
50820.7
48865
45837.5
40384.7
35748.2
2576.33
22528.9
27241.5
37206.7
38259
41540.7
43428.7
44631.3
45214.3
55882.2
55515.6
54799.3
54398.6
53007.5
61372.9
82408.2
57589.2
59387.6
53135.7
49235.3
49905.1
49855.8
50105.4
50263.8
55884.2
55490.2
54715.3
54062.3
52309.4
58886.6
75201.1
56695.4
56829.9
51831.5
48662.3
49567.7
49688.3
50023.2
50211.9
55908.8
55477.9
54707.3
53159.3
52258.6
47716.2
49508.7
38781.7
37658.2
42972.6
47945.1
48774.9
49498
49925.2
50150.1
55991
55569.2
54695.2
53553.5
49067.8
44197.8
33546.6
10499.5
15966.2
39407.6
43638.4
48562.3
49316.5
49858.1
50104.4
56149.8
55814.3
55103.2
52355
50040.9
44074.2
29586.2
16723
10107
32856.5
41373.1
46093.4
49430.5
49931.9
50129.5
56359
56071.4
54133.2
53062.2
50395
46447
34370.5
12228.5
28041
33686
40846.1
46603.3
47673.7
50032.6
50227.4
56466.9
56226.7
54399.2
53701.6
51133.9
49823.5
42610.6
6943.93
6016.98
35278.5
42227.6
45796.8
47982.5
50117.4
50272.7
56515.4
56291.1
54571.7
53116.1
51860
51345
44998.8
2667.23
9261.22
37267.4
43372.1
45452.8
48185.2
50172.3
50311.5
56452.9
56208.9
54520.3
53059.2
51779.5
51230.6
45003.1
2463.57
10418.9
37291.5
43394.6
45466
48163.6
50146.5
50298.3
56331.5
56037.3
54258
53379.5
50912.3
49319.3
41634.1
6215.04
6540.54
35729
42357.6
45810.6
47959
50086.7
50274.9
56112.4
55766.1
55029.8
52618.4
49784.7
45631.9
31659.4
14607.8
62332.8
35478.5
41188
46498.8
49534.6
50007.9
50195.4
55947.4
55515.2