/*--------------------------------*- C++ -*----------------------------------*\
| =========                 |                                                 |
| \\      /  F ield         | OpenFOAM: The Open Source CFD Toolbox           |
|  \\    /   O peration     | Version:  v2012                                 |
|   \\  /    A nd           | Website:  www.openfoam.com                      |
|    \\/     M anipulation  |                                                 |
\*---------------------------------------------------------------------------*/
FoamFile
{
    version     2.0;
    format      ascii;
    class       volScalarField;
    location    "0.049";
    object      p;
}
// * * * * * * * * * * * * * * * * * * * * * * * * * * * * * * * * * * * * * //

dimensions      [1 -1 -2 0 0 0 0];


internalField   nonuniform List<scalar> 
449343
(
108718
108873
109140
109424
109590
109462
108804
107550
105744
103587
101365
99345.7
97717.7
96589
96013.8
108706
108862
109131
109418
109586
109462
108809
107561
105761
103609
101389
99368.3
97737.4
96605.8
96028.8
108701
108859
109131
109423
109597
109479
108835
107597
105810
103667
101451
99428
97791.2
96653.8
96073.3
108701
108862
109139
109437
109617
109508
108876
107652
105880
103751
101540
99514
97868.6
96722.8
96137.5
108704
108868
109150
109456
109642
109541
108922
107715
105960
103844
101639
99609.7
97954.2
96798.3
96207.3
108708
108874
109161
109473
109665
109572
108964
107771
106031
103928
101727
99694.1
98028.8
96863.2
96266.6
108707
108876
109166
109482
109678
109591
108990
107805
106075
103981
101782
99746.5
98073.6
96900.8
96300.1
108702
108870
109162
109480
109677
109592
108989
107805
106075
103986
101788
99750.6
98074.5
96899
96296.9
108688
108856
109146
109463
109658
109569
108964
107773
106038
103940
101738
99701
98027.1
96853.9
96253.1
108668
108834
109121
109432
109623
109526
108911
107709
105959
103847
101642
99604.5
97937
96770.5
96173.5
108642
108806
109087
109392
109576
109470
108841
107622
105854
103726
101513
99477.6
97818.8
96661.3
96069.6
108614
108774
109051
109347
109525
109409
108766
107528
105741
103597
101375
99341.7
97691.7
96543.3
95956.9
108585
108743
109014
109304
109474
109350
108694
107441
105636
103478
101249
99217.1
97574.3
96433.4
95851.3
108558
108714
108981
109266
109431
109300
108635
107370
105553
103384
101150
99119.3
97481.4
96345.5
95766.5
108534
108689
108955
109237
109398
109264
108593
107323
105499
103325
101088
99058.3
97422.8
96289.4
95711.9
108541
108742
109105
109541
109891
109974
109451
108138
106084
103594
101080
98868.5
97135.5
95956.5
95361.9
108528
108731
109096
109535
109889
109976
109458
108153
106108
103625
101112
98898
97160.3
95977.2
95380.4
108523
108728
109097
109543
109903
109996
109488
108198
106170
103701
101193
98972.3
97224.5
96033
95431.6
108523
108731
109107
109560
109929
110026
109531
108259
106258
103811
101310
99080.7
97317.4
96113.2
95505
108526
108738
109121
109584
109962
110062
109587
108342
106357
103937
101448
99205.4
97422
96201.9
95585.4
108529
108745
109135
109608
109994
110101
109636
108415
106459
104051
101571
99320.3
97515.9
96279.4
95654.7
108529
108748
109143
109623
110012
110131
109674
108464
106528
104130
101657
99394.5
97574.9
96326.5
95695.4
108524
108744
109141
109624
110015
110135
109678
108414
106525
104138
101671
99405.6
97579.9
96327.8
95694.3
108511
108730
109126
109605
109994
110113
109651
108433
106488
104086
101612
99347.4
97527.2
96278.8
95647.6
108492
108708
109098
109571
109955
110063
109589
108354
106384
103967
101481
99226.8
97421.8
96185
95560.1
108466
108679
109063
109525
109901
110000
109512
108250
106247
103815
101316
99069.2
97283.8
96062.7
95445.8
108439
108647
109024
109476
109842
109937
109428
108138
106117
103653
101141
98904.7
97137.7
95931.4
95322.3
108411
108616
108986
109430
109786
109876
109354
108046
105997
103510
100988
98758.5
97005.1
95810.4
95207.5
108384
108587
108953
109390
109739
109824
109292
107969
105902
103399
100872
98646.8
96902.1
95714.9
95116.1
108361
108563
108926
109359
109704
109786
109249
107918
105842
103332
100802
98579.2
96838.5
95654.8
95058
108093
108400
108984
109776
110597
111220
111113
109644
106923
103557
100327
97682
95723.3
94439.5
93805.8
108079
108388
108976
109772
110599
111225
111124
109669
106963
103608
100379
97727.3
95759.9
94469.4
93832.3
108072
108384
108978
109784
110622
111253
111159
109736
107056
103731
100506
97835.6
95848.1
94543.4
93899
108071
108387
108990
109810
110664
111292
111203
109828
107179
103909
100698
97998.3
95976.9
94649.6
93994.1
108073
108395
109010
109847
110714
111333
111234
109900
107319
104139
100931
98191.6
96126.2
94769.1
94099.4
108076
108404
109033
109883
110768
111377
111293
110012
107500
104333
101176
98381.3
96264.1
94876.4
94191.9
108077
108410
109047
109917
110798
111425
111349
110098
107627
104456
101367
98511.1
96358.1
94944.7
94248.7
108073
108408
109049
109926
110816
111467
111410
109999
107649
104483
101396
98537.1
96374.2
94953.8
94253.3
108062
108396
109035
109906
110788
111422
111342
110076
107587
104413
101318
98460.8
96308.5
94895.3
94199.1
108044
108373
109005
109857
110742
111355
111259
109958
107420
104246
101075
98279.4
96165.1
94778
94093.7
108021
108344
108963
109802
110668
111291
111175
109815
107201
104005
100789
98045.9
95981.4
94624.5
93954.8
107995
108313
108920
109741
110593
111225
111119
109715
107032
103743
100519
97813.3
95790.2
94461.9
93805.8
107969
108282
108879
109687
110521
111157
111046
109596
106885
103535
100293
97614.3
95622.1
94314.7
93669.1
107945
108255
108845
109642
110464
111094
110978
109498
106762
103381
100134
97469.9
95495.6
94201
93562
107922
108231
108818
109610
110425
111052
110930
109437
106687
103294
100045
97387.2
95420.4
94131.8
93495.9
107246
107706
108625
109985
111661
113329
114379
112612
108416
103197
98759.4
95522.5
93306.7
91925
91264.1
107231
107693
108615
109981
111665
113340
114389
112651
108480
103281
98842.3
95590.5
93360.3
91968.7
91302.6
107220
107686
108616
109997
111700
113388
114429
112759
108639
103502
99044.6
95748.9
93483.7
92070.1
91393
107213
107685
108630
110036
111762
113466
114377
112925
108810
103871
99382
95994.6
93665.9
92215.6
91521
107211
107691
108657
110093
111860
113522
113666
112761
109695
104367
99816.6
96306.5
93883.1
92381.9
91664.1
107211
107701
108694
110181
111963
112772
113675
112899
110021
105777
100355
96634.2
94095.3
92534.1
91791.8
107210
107709
108720
110240
111354
112868
113749
113033
110226
106056
101714
96847.6
94239.5
92634
91872.4
107207
107712
108733
110260
111363
112929
113844
113017
110305
106165
101799
96897.9
94282.4
92656.3
91883.8
107200
107701
108716
110240
111353
112902
113789
113051
110266
106095
101732
96793.8
94189.1
92581.6
91819.6
107186
107679
108678
110175
111965
112806
113701
112940
110070
105863
100227
96518.6
93987.6
92427.9
91686.5
107169
107653
108626
110073
111846
113511
113671
112770
109781
104209
99647.2
96143.8
93726.3
92227.1
91510
107149
107625
108578
109994
111726
113432
114332
112830
108645
103677
99176.9
95791.7
93466
92016.3
91321.8
107129
107599
108537
109928
111634
113320
114356
112639
108466
103291
98814.3
95512.4
93244.8
91829.4
91151.4
107109
107574
108503
109878
111564
113232
114282
112498
108281
103046
98583.5
95320
93083.6
91688.3
91020.5
107089
107553
108477
109845
111521
113180
114236
112424
108184
102929
98466.5
95215.5
92991.6
91605.3
90942.1
105813
106438
107737
109811
112737
116430
120311
117845
110654
101719
95649.4
91970
89676.1
88334.6
87721.7
105793
106419
107722
109803
112738
116443
120313
117874
110748
101851
95768.3
92061.6
89748.5
88394.2
87774.6
105773
106403
107715
109816
112788
116522
120374
117983
111027
102186
96056.7
92270.8
89910.9
88527.8
87893
105754
106391
107720
109875
112951
116724
118180
118234
112812
103089
96640
92625.8
90154.4
88720
88060.6
105739
106383
107743
109955
113118
115297
118305
118455
113395
105774
97384.3
93073.2
90454.9
88941.3
88249.4
105728
106389
107797
110163
112290
115545
118498
118675
113893
106637
99916
93595.4
90747.6
89152.3
88420.1
105717
106379
107796
109610
112366
115715
117667
118171
114425
107938
100556
95606.4
90911.2
89272
88525.5
105716
106387
107872
109616
112429
115788
117777
118318
114688
108236
100863
95804.8
91087.3
89304.4
88551.7
105711
106378
107806
109606
112422
115788
117765
118314
114629
108171
100735
95708.5
90866.1
89216.2
88468.4
105712
106378
107797
110186
112327
115666
117709
118134
114299
106819
100105
93468.7
90626.3
89034.9
88304.7
105709
106360
107734
109968
113152
115424
118427
118504
113461
106063
97158.7
92882.3
90281.1
88772
88081.6
105704
106347
107690
109868
112971
116754
118247
118298
112998
102822
96388.1
92396.4
89935
88503.6
87845.3
105697
106333
107658
109780
112774
116507
120378
118007
110851
101943
95797
92012.2
89652.7
88269.3
87634.1
105686
106318
107632
109731
112683
116379
120276
117801
110550
101593
95485.3
91770.6
89452.7
88095.5
87474.5
105671
106301
107611
109701
112639
116306
120251
117703
110427
101435
95336
91643.4
89342
87996.3
87381.5
103556
104294
105892
108639
113031
119980
125728
131199
117619
96716.6
89764.1
86453.7
84567.2
83591.2
83183.7
103527
104266
105864
108617
113018
119968
125712
131214
117686
96885.4
89909.6
86563.6
84657.3
83666.8
83251.3
103492
104231
105832
108588
113017
120003
125718
131288
117882
97219.9
90191.7
86785.2
84853.3
83832
83398.6
103452
104195
105808
108613
113330
117890
125872
131546
118362
102222
90925.2
87143.2
85148.7
84073.5
83608.3
103406
104146
105761
108654
112161
118157
126216
129412
120321
104000
94865.5
87717.8
85486.5
84342.9
83845.5
103374
104105
105802
108304
112291
117307
124541
128794
121448
107368
96048.8
90642
85862.2
84590.5
84061.9
103340
104058
105786
108347
112433
117349
123753
129102
122634
109281
98392.7
91204.5
86040.6
84720
84189.9
103327
104031
105856
108418
111866
116948
123881
129373
123166
109796
98822
91484.3
88111
84714.2
84211.8
103339
104061
105800
108402
111886
117451
123959
129478
123229
109776
98729
91309.8
85979.6
84656.7
84125.8
103366
104106
105821
108326
112484
117471
123905
129252
122569
109081
98089.1
90870.6
85720.1
84460.2
83933.6
103389
104137
105776
108705
112252
118424
124617
129727
120938
106629
95233
87488.3
85289.3
84154.6
83661
103414
104167
105801
108646
113431
118055
126096
131721
118445
102510
90611.9
86879.5
84904
83835.7
83373.1
103430
104178
105799
108586
113068
120106
125846
131345
117903
96894.6
89885.6
86495.5
84570.2
83551
83118.1
103436
104182
105797
108577
113023
120013
125733
131182
117578
96577.8
89589.3
86243.4
84336.1
83344.4
82928.1
103429
104174
105788
108561
112992
119973
125703
131103
117439
96398
89419.2
86099.7
84207.7
83228.6
82819.7
100268
100969
102542
105425
110371
117254
133804
163906
120878
88431.7
79069.5
78222.7
77807.7
77765.3
77792.8
100229
100927
102495
105372
110313
117207
133726
163845
120926
88550.5
79219.6
78340.4
77913.4
77855.7
77874.4
100170
100859
102411
105248
110136
117106
133527
163699
121120
88918.4
79407.2
78567.3
78136.7
78046.9
78049.1
100097
100775
102306
104985
109536
117365
133343
163397
121418
89826.6
83525.2
78801.1
78469.4
78327.4
78299.4
99999.3
100646
102061
105069
109466
116397
130298
163111
123847
95448.6
84573.2
81824.2
78807.9
78649.1
78584.9
99911.4
100475
102576
105072
109194
116233
128701
158007
131258
99975
88417.9
82652.7
81096.5
78924.8
78850.6
99859.3
100414
102556
105036
109185
115804
128443
157807
134424
102532
90973.3
85067.2
81437.4
79137.8
79021.9
99823.2
100379
102615
105065
109185
115788
128428
157955
135868
103903
91769.4
85472.5
81705.3
79175.8
79018
99862.4
100421
102575
105108
109253
115885
128669
158653
136985
104181
91754.1
85419.5
81562.2
79072.9
78950.3
99911.9
100486
102605
105085
109318
116042
129000
159001
134266
102277
90704.3
84804.9
81176.4
78790
78711.4
99993.1
100650
102099
105111
109564
116603
129295
158904
129655
98769.5
87679.2
82021
78589.8
78442.4
78383.3
100070
100760
102317
105047
109517
117467
130832
163756
121863
94376.4
83515.9
78496.7
78199.6
78067.9
78042.6
100120
100821
102396
105271
110229
117256
133770
163868
120993
88833.9
79036.4
78241.1
77825.7
77740.3
77743.5
100149
100857
102445
105357
110354
117293
133849
163959
120811
88356.2
78849.8
77983.9
77561.4
77504.8
77523.5
100153
100863
102455
105370
110365
117289
133897
163977
120687
88126.3
78682
77833.4
77416.5
77372.9
77399.8
95903.8
96309.8
97223.4
98929.2
101781
108503
115918
113476
26731.5
57340.3
63759.6
67492.3
69852.9
71322.9
71996.3
95855.8
96257
97161.3
98849.9
101694
108399
115809
113268
26578.8
57443.4
63888.7
67630.3
69980.3
71428.5
72091
95776.5
96159.9
97041.2
98713.5
101490
108165
115529
112858
27331.7
57927
64204
67994.7
70260.6
71653.3
72294.1
95672.2
96020.9
96864.2
98346.2
102745
107550
114965
112104
28322.3
59108.8
66482.4
68691.3
70730.7
71995.5
72592.4
95536
95838
96570.8
99462.8
102324
107768
115323
110854
32613.9
65125.7
69642.1
71055.9
71386.4
72440.4
72945.6
95392.8
95676.4
97718.3
99253.8
102753
107841
114558
108866
50467.5
70894.6
73118.4
72163.8
73251.5
72913.6
73278
95335.7
95606.8
97652.1
99122.5
102966
107591
113964
106887
66511
76557.1
75378.6
74398.1
73696.6
73227.9
73509.5
95307
95566.9
97603.7
99828.2
102930
107516
113779
106146
67847.7
77945.9
76526.6
75752.8
74000
73313.8
73543.8
95343
95619
97624
99842.1
102979
107636
114086
107060
82552.5
78665.8
76681.9
75777.4
73881.6
73175.7
73444.3
95392.9
95684.9
97707
99226.3
103089
107897
114729
109266
75560.4
76716.1
75344.4
74232.8
73451.1
72790.3
73141.8
95536
95848.9
96612.2
99427.1
102967
108211
115421
111182
32212
68314.2
72407.6
71469.5
71194.5
72236.7
72734.5
95654.2
96014.5
96882.5
98412.1
102727
107441
114978
112494
26879.2
61281.9
66499.3
68399.4
70453.7
71721.9
72316.7
95733.7
96127.5
97032.3
98742.9
101587
108091
115607
113167
25647.4
57650.9
63802.6
67649.7
69927.4
71322.1
71962.4
95782.6
96192.9
97117.1
98841.4
101737
108456
115931
113554
26406.6
57182.1
63482.4
67241
69596.7
71046.4
71709.2
95795.5
96210.1
97141.9
98879
101776
108554
116061
113749
26007.7
56946.1
63327.2
67064
69425.8
70896.5
71570.1
90755.1
90623.7
90338.7
89915
89756.9
93729.4
97444.3
110856
6634.35
35551.1
49716.5
57363.1
62383.1
65318.2
66640.6
90705
90568.3
90276.1
89842.8
89693.4
93637.3
97345.1
110600
2332.08
35609.1
49819.4
57525.2
62525
65433.2
66743.3
90624.3
90473.3
90164.6
89747.6
89557.6
93433.5
97104.1
110337
5627.08
36044.6
50310.2
57964.1
62843.2
65689.5
66967.8
90523.7
90338.6
90009.4
89710.2
92286.3
93216.1
96650.4
109902
4177.58
37157.3
51067.7
58861.3
63422.5
66101.8
67310.9
90406.1
90194.8
89909.2
91670.1
92151.1
94834.2
97337.8
109369
9358
39083.2
53160.5
60482.4
64218.2
66656.4
67734.8
90293.3
90155.2
91442.4
91504.3
93245.5
95395
96852.9
108421
10503.2
43600.2
55731.5
61695.4
65558.5
67229
68141.6
90256.5
90127.6
91293.3
91426
93792.9
95159.6
96473.3
107830
28333.5
46301.3
57737.3
63270.1
66178.3
67599.3
68413.9
90233.9
90098.5
91236.6
92377.6
93735.2
95078.3
96347.9
107514
2221.5
45171.3
59331.7
64384
66598.3
67733.8
68481.1
90262.9
90136.6
91251.5
92392.7
93777.9
95166
96521.5
107967
2155.17
48903.1
60410.2
64653.6
66544.2
67578.6
68363.2
90298
90165
91337.8
91531.2
93896.5
95389
96912.1
108647
60145.4
50173.1
59199.8
63591.8
66025
67145.2
68020.8
90405.3
90200.9
89939.6
91584.9
93445.3
95696.5
97377.7
109305
8282.63
43542.9
56019.1
61246.6
64102.7
66478.3
67523.1
90506.2
90328.8
90015
89742.7
92349.8
93433.7
96937.5
110105
3725.93
37885.7
51824.6
58679.2
63164.5
65823.5
67019.3
90583.6
90439.5
90146
89753.7
89596.1
93451.9
97085.5
110361
4561.57
36084.3
49963
57629.2
62499.2
65337.1
66610.3
90633.6
90502.7
90222.4
89810.2
89687.8
93617.5
97363.4
110637
2947.31
35421.6
49409.1
57115.3
62110.6
65018.4
66328.3
90648.5
90522.2
90247.7
89842.4
89710.9
93725.1
97502.2
110793
3806.06
35144.8
49244.3
56894.9
61915.7
64853.6
66177.3
85542.8
84813.3
83298.9
80887.7
80424.6
79016.2
81401.2
2293.74
27188.5
42311.4
51233.4
57396.8
61081.9
62796.9
85496.1
84762.1
83242.5
80829.6
80358.7
78950.4
81337.8
2295.17
27207
42380
51379.8
57522.2
61188.2
62892.5
85428
84688.2
83148.1
80726
80297.4
78856.1
81191.7
2295.86
27217.5
42793.6
51719.6
57798.5
61431.2
63104.5
85357.3
84604.2
83027.6
80762.6
80449.4
78640.9
80866.3
2293.38
27697.6
42017.8
52467.7
58305.9
61830.2
63437.6
85296.1
84532.8
83071.6
82856
80859.5
80549.7
81285.7
2304.09
26200
42402.1
52718.8
59007.8
62368.1
63856.2
85248.5
84604.5
84541.9
83013.5
82063.9
81347.2
81001.5
2292.14
26728.1
43165.6
53564.4
59442.8
62839.1
64271.9
85235.2
84596.8
84488.6
83036.4
82769.9
81251.8
80818.5
2280.54
24671.8
44446.5
54334.9
60049.7
63141.4
64523.9
85219
84584.5
84462
83895.5
82845.3
81217.2
80764.7
29056
36682
47567.7
55352.1
60380
63266.2
64591.1
85240
84602.7
84471.2
83914.4
82870.6
81261.7
80834.8
84904.8
59798.4
50513.2
55908.8
60381.4
63117.3
64469.1
85256.3
84616.8
84517
83093.8
82838.5
81366.2
80996.2
2174.42
37787.9
48239.8
55123.5
59992.2
62746.7
64140.8
85296.9
84535.8
83087.4
82852.5
82119.3
81480.3
81209.8
2890.25
30515.2
44966.3
53555.2
58895.5
62178.9
63625.5
85341.4
84591.3
83019.5
80764.7
80485.4
78755.2
80527
2311.21
27480.2
42814.2
52333.9
58037.5
61529.9
63118
85388.3
84649.7
83111.4
80685.3
80233.7
78737.4
81001.3
2294.29
27215.7
42447
51369.9
57422.4
61045.5
62713.9
85425.2
84691.3
83170.7
80756.5
80310.4
78861.3
81226.5
2292.19
26923.6
41915.4
50922.6
57058.2
60730.7
62437.9
85436.3
84706.6
83191.1
80780.4
80301.3
78921.8
81343
2293.81
26843.7
41773.6
50703.1
56873.6
60570.4
62290.7
81203.5
79921.3
77230.9
72543.1
69970
61800
57043.9
2494.11
2297.04
26606.7
40337.3
49471.6
55701.7
59463.6
61259.6
81156.2
79867.2
77163.5
72458
69891.3
61731.9
57008.5
2299.95
2298.04
26669.9
40320.7
49576.3
55783.4
59541.6
61329.3
81089.5
79793.5
77052.5
72285.9
69771.5
61614.7
57054.7
2288.79
2298.21
23009.8
40628.7
49775.4
55976.3
59724.8
61484.9
81026.4
79725.5
76885.9
72117.3
69572.4
61311.8
56899.4
2523.79
2308.69
23518.8
38061.5
50217.9
56323.3
60024.5
61744.4
80988.5
79659
76752.7
75060.2
69108.6
64065.1
58448.5
2626.57
2295.47
20694.2
37187
49061.6
56812.9
60445.7
62068.3
80968.5
79631.7
78712.1
74834.4
71037.1
65252.8
58264.2
3225.07
2308.49
20595.4
36941.6
49530.3
56237.2
60791.7
62397.4
80953.6
79603.5
78662.3
74651.4
71849.1
65143.5
58173.5
2478.47
2268.83
19341.1
37283.4
49179.3
56615.2
60976.8
62569.5
80940.9
79597.6
78626.5
76091.1
71791.6
65120.6
58183
2468.43
2300.19
10065.2
37604.9
49293.4
56785
61037.4
62601.4
80961.6
79611.8
78642.5
76118.6
71803.5
65138
58225.8
3805.66
2188.02
2310.56
39053.9
49647.9
56738
60883.5
62475.1
80982.4
79646.1
78715.3
74726.8
71901.3
65187.2
58255.8
2301.62
2297.72
26884.5
39980.7
49682.3
56457.6
60601
62206.7
80998.8
79670.5
76766.3
75034.9
71119.8
65291.8
58310.4
2281.29
2955.07
24221.5
38567.7
49417.2
56536.7
60168.9
61777.7
81020
79718.8
76874.9
72088.1
69349.4
61085.8
56501
2316.37
2296.09
22729.1
38460.2
49878.6
55934.3
59652.2
61366.3
81057.1
79757.2
77006.1
72211.4
69544.7
61290.7
56601.7
2703.09
2298.03
22622.2
40072
49278.3
55498.1
59270.9
61045.9
81090.9
79796.5
77079.2
72348.1
69728.3
61501.3
56764.4
2310.73
2296.9
25615.4
39671.8
48972
55225
59020.3
60823
81101.7
79813.6
77109.5
72399.3
69796.9
61627.6
56903.1
2532.61
2297.01
25825.4
39651.9
48819.3
55093
58890.7
60702
78585.1
76887.5
73277
66902.8
55936.2
45333.1
19352.6
2301.37
2307.89
29456.4
42695.1
51289.9
57094
60570.2
62226.8
78528
76818.6
73174.8
66760.4
55727.9
45126
19471.2
2309.53
2304.41
29241.5
42567.9
51314.5
57118.9
60609.1
62264
78445.8
76722.3
73029
66566
55415.4
44737.1
19655.7
2278.92
2304.77
23873.7
42601
51420.5
57221.8
60711.7
62355.9
78361.3
76638.4
72835.6
66322.8
59771.3
44248.1
19801.5
2273.41
3175.32
24249.7
38638.8
51683.1
57426.1
60888
62507.5
78307.6
76573.9
72731.2
68829
59546.4
47926
25809.9
2263.57
2268.23
20256.4
37143.2
49368.6
57782.4
61178.8
62707
78287.4
76533.6
74351
68720.8
61709.8
49681.7
26209.3
2274.58
2289.57
20453
36807.9
49892.4
56309.6
61418
62921
78267.8
76497.4
74360.3
68621.4
62655.2
49652.7
26209.5
2282.91
2324.98
18636.1
36776.4
48792.1
56534.5
61501
62997
78260.6
76496.3
74352.2
70015.1
62586.5
49672.2
26266.6
11322.1
2287.74
2291.38
34762.5
47902.1
56494.2
61467.9
62976.3
78286.1
76517.4
74368.1
70029.2
62581.9
49645.4
26265.1
2303.73
2264.6
7782.72
34734.5
47657.3
56302.7
61294.4
62843.5
78318.6
76567.4
74416.2
68682.4
62663.1
49623.3
26217.7
2265.07
5263.02
21161.1
36432.1
48104.8
56022.6
61073.1
62641.8
78340.7
76610.5
72774.2
68884.1
61738.8
49670.1
26182
2257.15
2294.73
21747
36392.6
48897
57219.9
60757.3
62337.2
78378.8
76655.8
72849.1
66315.8
59646.2
44064.8
20753.9
2262.54
2320.44
21805.9
38247.6
50980.3
56848.3
60406.4
62066.6
78434.9
76705.7
72996.1
66492.5
55247.2
44296.4
19045.5
2281.62
2303.28
23077.1
41721
50697.4
56608.2
60169.6
61850.1
78481.3
76762.7
73095.8
66634.3
55526.3
44697.8
19141.3
2254.66
2302.14
27865.7
41693.9
50519.9
56450.4
60011.3
61698.6
78499.8
76791.4
73155.2
66734.5
55704.5
45021.9
19339.6
2267.26
2302.58
28348.9
41811.8
50484.8
56390.5
59929.8
61616.2
78334.1
76603.2
72895.5
66475.7
55468.8
42589.9
7591.31
2300.04
10709.5
38207.9
49169.4
56447.5
61265.5
64079.2
65419
78262.1
76511.9
72742.1
66200.3
55126.7
41566
6947.25
2262.6
8892.57
37644.9
48867.7
56358.7
61221.7
64073
65419.2
78161.2
76386.2
72535
65871
55024.9
40521.5
9167.29
2298
2312.07
29104.2
48831.7
56365.4
61223.1
64099.3
65447
78059.9
76280.9
72349.1
65635
56940.9
39555.4
9535.84
2279.02
5230.81
29187.3
43726.4
56522.5
61299.4
64169.8
65512.3
78000.5
76229.3
72318.3
66967.9
56508.2
41793.7
18521.7
2288.16
2296.93
24449.4
41991
53542
61572.4
64354.6
65619.7
77988.9
76232.8
73107.6
66818.1
57905
42896.7
18506.9
2274.21
2252.39
28400.6
43161.2
54366.1
59537.6
64529.5
65750.1
77975.9
76209.8
73106
66775.7
58603.8
43040
18848.7
8892.61
2100.53
39020.1
46833.2
53530.7
59723.7
64549.5
65766.6
77982.5
76219.9
73131.7
67720
58578.8
43287.3
19624.8
2227.6
2313.9
25578.1
45122.7
52379.7
59552.2
64453.1
65707.5
78012
76252.3
73161.8
67734.1
58550.1
43069.1
18783.7
2287.1
2273.44
20526.3
41021.9
51173
59184.9
64265.9
65563.4
78051.4
76306.5
73188.8
66880.5
58601.5
42845.9
18484.4
2299.6
6366.98
23880
39705.1
51101
58819
64072.4
65402.8
78074.4
76315.9
72434.2
67063.7
57989.9
42904.3
18472.4
2262.4
2303.51
23733.5
39147.8
52306.1
60805.5
63830.1
65187.4
78120.8
76349.3
72432.1
65725.8
56789.1
39683.5
17759.1
2259.78
2299.23
24672.2
42461.5
55555.8
60587.7
63614.4
65022.5
78191.1
76414.6
72554.4
65855.5
54963.4
39818.5
8946.12
2294.56
2307.71
27362.7
47600.9
55468.5
60514
63502.5
64903.7
78251.8
76492.1
72695.5
66084.2
54869.1
41302.5
6224.88
2246.34
2984.54
35780.3
47598.7
55390.5
60476
63429
64823.5
78281.8
76537.4
72794.1
66289.3
55179.9
42044.3
6820.74
2265.99
7514.89
36619.7
47994
55498.6
60495.7
63399
64782.2
80641.9
79376.7
76710.1
72465.2
63862.8
54191.9
22681.2
2328.7
40448.4
55899.6
60306.4
64920.6
67818.6
69517.5
70360.1
80555.8
79257.3
76491.8
71964.9
62877
52426.7
12247.7
2321.58
38683.9
55266.9
59778.3
64696.3
67702
69466.3
70326
80439.5
79099.1
76215.1
71306.5
63852.3
48798.1
16051.8
2575.64
20959.7
43405.2
59763.7
64466.1
67576.7
69421.3
70297.8
80329.3
78953.7
75933.9
70855.7
62479.6
46879.2
17149
2386.09
8363.62
40992.2
53517.2
64337.1
67460
69389.2
70289.3
80271.1
78880.2
75853
70464.7
61350.8
46376.7
21515.4
2316.89
2305.32
33362.6
50752.6
60715.2
67583.2
69460.8
70320.6
80269.3
78915.6
75569.3
70044.7
61204.5
46120.9
20692.4
2365.75
2317.54
39923.3
52192
61241
65109.8
69582.9
70389.9
80268.7
78913
75482.7
69952
61292.2
46277.6
22220.7
2303.63
2231.32
85615.4
59407.2
60508.5
65194.2
69570.8
70370.2
80292.7
78943.1
75518.4
70176.8
61295.1
47181.1
40125.9
2468
2599.36
87132.3
60084.1
59695.9
65013.1
69472.2
70302.9
80328.9
78989.7
75576.3
70225.7
61291.7
46482.5
25340.7
6444.45
2275.38
42199.6
52267.6
58174.6
64668.3
69317.2
70177.6
80374.9
79049.1
75640.6
70224.5
61425.6
46002.5
20735.3
2301.86
6792.3
32760.7
48135
57858.1
64362.7
69168.9
70060.3
80400.1
79039.3
76085.4
70506
61591.2
46442.2
20766.5
5916.9
2345.88
31290.8
47121.3
59472
66930.7
68977.6
69908.4
80450.1
79097.7
76130.8
71135.1
62129.8
46627.8
20770
2287.26
2306.99
33665.7
51870.7
63471.5
66810.4
68865.3
69818.4
80527.7
79196.8
76329.3
71423.9
64009.6
47764.7
16205.6
2354.95
14451.5
40003.6
58570.7
63619.3
66903.8
68851.7
69775.5
80598.6
79294.4
76505.2
71894.2
62434.9
51773.4
7291.35
2324.52
34931.1
53749.3
58433.4
63753.1
66980.7
68843.7
69751.7
80639.1
79360.4
76652.8
72280.8
63345.4
53211.7
17791.4
2322.41
37152.2
54548.1
59018.6
63975
67068.5
68857.9
69746.1
84961.4
84518.4
83686.1
83613.7
83146.2
91453.7
132445
127433
97268.1
80982.6
75872.6
75901.1
75914
76179.7
76399.9
84870.2
84375.5
83424.5
82955.3
81742.9
89461.6
128205
112677
94218.5
79828.9
75164.8
75567.4
75742.7
76092.4
76339
84748.8
84181.8
83076.3
81474.6
80472.8
73557.7
77994.7
64289.6
68768.8
68799.7
74208
74834.1
75490.6
75982.8
76265
84639.5
84004.9
82667.7
80699
74985.9
67875
54628.7
17412.5
41083.7
64077.5
68281.9
74166.5
75113.7
75848
76189.8
84592.2
83914.9
82520.7
78326.1
73478.4
63079.4
40718.9
4905.94
19652.7
51310.8
63652.1
70263.3
75018.1
75792.6
76148.8
84611.3
83963.5
81065.1
77846.6
71413.6
59915.5
35399.5
2239.19
11236.3
46199.1
60794.1
69769.4
72279.6
75788.6
76160.2
84630.1
83989
80925.8
77781.8
70582
58466.3
32790
2322.3
2386.62
34356
59957.3
67604.2
72143
75741.5
76114.1
84673
84045.3
80987.6
77091
70520.1
58510
37930.2
2443.02
2326.51
15450.6
60287.9
66658.6
72065.4
75679.8
76063
84713
84095.6
81081.1
77220.4
70738.6
58756.8
32353.5
7397.94
25047
46628.6
60274.7
66390.8
71984.9
75601.1
75984.2
84757.9
84151.3
81190
78302.8
71215.1
59677.2
33257.6
2259.32
16121.8
47009.7
60145.9
67342.4
71945.5
75543.6
75929.3
84777
84149.4
82881.5
78526.3
72439.4
61505.3
37473.2
2240.33
17217.9
48698.6
60765.8
69794.6
74723.2
75478.7
75836.1
84824.1
84233.1
83000.3
81231
74862.2
67591.3
42978.6
3356.36
14809.9
54745.3
67064.8
73744.6
74687.9
75453.2
75807.3
84903.4
84364.1
83320.2
81801.2
80929.2
70394.3
59838
45523.9
52724.4
64789
73514.3
74289.2
75000
75523.7
75823.3
84977.1
84489.3
83543.8
83071.1
81533.7
89159.6
126986
102302
91075.8
78828.7
74209.5
74904.9
75173.3
75567.2
75837.5
85020.8
84573.3
83721.5
83570.5
82714.8
90577.4
130468
115649
94412.8
79908.1
74843.1
75186.1
75295
75611.5
75862.9
90105.8
90456.7
91160.8
94060.1
98946.1
104392
129339
133029
112929
97626.9
89874.4
86253
83942.2
83026.5
82677.7
90041.4
90345.8
91006.7
93735.4
98388.1
104478
132396
140909
114777
97123.9
89416
85986.6
83791.8
82941.3
82617.9
89954.8
90157.3
90782.3
92251.4
96558.7
99785.2
121817
149293
118722
95579.4
88042.9
85144.4
83525.6
82803.8
82530
89885.3
90020.1
90402.9
91463.6
90966.4
96490.7
113145
141980
115021
92185.4
85008.4
84166.9
83117.8
82633.6
82426
89880.4
89976.2
90230.6
88563.2
89274.1
89221.2
94641.1
124117
95215.9
82075.1
80760.6
81373.1
82806.9
82496.5
82338.7
89948.8
89993.7
88344.3
88234
86549.5
84672.5
83523.6
68802.5
50459.6
71553.8
76316.7
80518.7
80640.1
82371
82303.6
90001
90047
88386.3
88264.3
85240.9
82532.5
65822.2
2293.83
57822.9
53856.9
72364.9
78050.9
80444.5
82289.2
82242.3
90062.3
90127.4
88504.5
87089.3
85443.4
82425.1
61535.8
2319.58
2278.88
33014
70248.3
76685.7
80360.5
82254.4
82208.9
90093.3
90160.5
88606.6
87255.1
85862.4
83801.3
69676.4
2277.98
32306.1
61877.6
73740.7
77259.1
80432.6
82223.9
82163.9
90117
90205.1
88672.8
88773.2
86363.9
85858.9
80265.8
11672
63588.3
75080
77279
79092.3
80612.3
82254.4
82173.3
90100.2
90254.6
90651.8
89116.7
88160.8
88078
93203.3
146276
86243.5
81162.7
79497
81307.4
82713.6
82316.1
82116.1
90116.2
90310.7
90836.9
92193.2
91639
97113.3
106910
164753
104640
88483.2
84660.8
84132.1
82936.8
82377.8
82145.6
90165.5
90416.6
91159.6
92855.6
97673.4
100681
124927
156942
120835
95608.1
88083.1
84985.5
83245
82481.6
82192.4
90209.9
90545.8
91265.7
94158.7
98942.2
105273
135480
142851
116379
97232.5
89112.4
85693.9
83422.7
82552.5
82224
90229.5
90600.9
91338.2
94326.2
99266.1
104607
131371
136151
114551
97304.3
89418.8
85882.6
83510.3
82587.2
82238.1
94733
95407.4
96471.6
98837
103186
102559
105391
110305
105798
100946
96502.2
92934.8
90262.8
88947.9
88312.6
94744.5
95415.2
96569.7
99177.1
103818
104056
109042
114140
107472
101476
96812.2
92991.7
90247.9
88920.9
88287.8
94772
95377.3
96761.4
99124
103479
105853
111261
122757
111615
103155
96536.3
92778.8
90204.7
88859.5
88251
94816.6
95413.8
96752.5
99453.1
100926
107633
118211
132934
118627
103922
96293.2
92462.2
90041.2
88768.4
88195.9
94896.3
95487.3
96837.6
97487.1
101325
106933
118983
140880
123396
104586
95429.7
91308.6
89833.4
88665.3
88133.8
95008.9
95520
95601.4
97581.5
100228
107263
127092
165100
125567
104271
94510.3
91013.7
88770.6
88498.6
88092.8
95111.3
95639.7
95767.3
97988.3
100112
109595
135487
227248
149707
104817
93825.4
90067.2
88672.4
88419.9
88043.5
95192.1
95743.1
95913.2
97058.9
100771
111434
142426
187048
155768
104018
93339.1
89593.3
88546.7
88385.9
88018
95200.4
95753.9
95952.5
97127.9
100959
111628
140461
178975
138133
104562
94090.5
89824.2
88582.7
88370.7
87981.7
95174.1
95732
95901.4
98219.8
100653
110667
136370
199979
138209
106820
95202.1
90509
88730.2
88401.6
87975.9
95116.9
95769.5
97287.3
98072.3
101034
109034
129204
163120
132088
107274
95844.4
91397.6
89792.9
88529.4
87969.1
95056.3
95716.2
97206.3
100209
102271
110699
124434
150796
129461
106877
96688.2
92559.6
89950.8
88585.3
87983.1
95004.5
95668.3
97190.3
99814.5
104568
108669
117426
131156
115375
104886
96882.7
92824.8
90055.4
88633.4
87992.4
94946.1
95668.3
96918.4
99755.1
104769
105362
111586
118631
109661
102167
97038.5
92960.6
90030.7
88643.5
87981.8
94896.6
95616.8
96765.3
99300.5
104072
103590
107729
113788
107619
101332
96666
92845.6
89990.6
88626.4
87963.7
98144.1
98727.5
99531.6
100443
103052
102601
101867
106119
102809
101028
98749.5
96460.7
94516.5
93405.5
92781.1
98242.4
98860.2
99792.4
101065
104062
103828
104508
105960
103925
101985
99433.4
96760.3
94651.6
93463.1
92813.3
98421.4
99031.5
100296
102021
105047
106280
109543
114507
109483
104363
100256
97220.9
94895.2
93549.3
92877.4
98632.3
99330.3
100772
103326
105055
109702
115885
120843
115615
107441
101623
97727.5
95144.2