/*--------------------------------*- C++ -*----------------------------------*\
| =========                 |                                                 |
| \\      /  F ield         | OpenFOAM: The Open Source CFD Toolbox           |
|  \\    /   O peration     | Version:  v2012                                 |
|   \\  /    A nd           | Website:  www.openfoam.com                      |
|    \\/     M anipulation  |                                                 |
\*---------------------------------------------------------------------------*/
FoamFile
{
    version     2.0;
    format      ascii;
    class       volScalarField;
    location    "0.049";
    object      p_rgh;
}
// * * * * * * * * * * * * * * * * * * * * * * * * * * * * * * * * * * * * * //

dimensions      [1 -1 -2 0 0 0 0];


internalField   nonuniform List<scalar> 
449343
(
108581
108736
109002
109287
109453
109325
108667
107413
105607
103450
101227
99208.3
97580.4
96451.7
95876.4
108588
108745
109013
109300
109469
109345
108691
107443
105643
103492
101271
99250.6
97619.7
96488.1
95911.1
108603
108761
109033
109325
109499
109381
108737
107499
105712
103569
101353
99329.9
97693.1
96555.7
95975.2
108623
108784
109060
109359
109539
109429
108797
107574
105802
103672
101461
99435.5
97790.1
96644.3
96059
108646
108809
109091
109397
109584
109482
108863
107656
105901
103785
101581
99550.8
97895.3
96739.5
96148.5
108668
108835
109121
109433
109626
109532
108924
107732
105991
103889
101688
99654.9
97989.5
96824
96227.4
108688
108856
109146
109463
109659
109571
108970
107785
106055
103962
101763
99726.9
98054
96881.2
96280.5
108702
108870
109162
109480
109677
109592
108989
107805
106075
103986
101788
99750.6
98074.5
96899
96296.9
108707
108876
109166
109482
109678
109588
108984
107793
106058
103960
101758
99720.6
98046.8
96873.6
96272.7
108707
108873
109160
109471
109662
109565
108950
107748
105999
103887
101681
99643.7
97976.2
96809.7
96212.7
108701
108865
109146
109451
109635
109529
108900
107681
105913
103785
101572
99536.5
97877.7
96720.1
96128.4
108692
108853
109129
109426
109603
109487
108844
107607
105819
103675
101454
99420.2
97770.2
96621.8
96035.3
108683
108841
109112
109402
109572
109448
108792
107539
105734
103576
101347
99315.2
97672.4
96531.5
95949.4
108676
108832
109099
109384
109549
109418
108752
107488
105671
103502
101268
99237
97599.1
96463.2
95884.2
108672
108827
109092
109374
109536
109401
108731
107461
105637
103463
101226
99195.6
97560.1
96426.7
95849.2
108403
108605
108968
109403
109753
109837
109314
108001
105947
103457
100942
98731.1
96998.2
95819.2
95224.6
108411
108613
108979
109417
109771
109858
109341
108036
105990
103507
100994
98780.3
97042.6
95859.5
95262.6
108425
108630
108999
109445
109805
109897
109389
108100
106072
103603
101095
98874.2
97126.4
95934.9
95333.5
108444
108652
109028
109482
109851
109948
109453
108181
106179
103732
101232
99002.2
97239
96034.7
95426.5
108467
108679
109062
109525
109903
110003
109528
108283
106298
103878
101389
99146.6
97363.2
96143.1
95526.6
108490
108706
109095
109568
109955
110062
109597
108376
106420
104012
101532
99281
97476.7
96240.2
95615.5
108510
108728
109124
109603
109992
110111
109654
108445
106508
104110
101637
99374.8
97555.2
96306.9
95675.7
108524
108744
109141
109624
110015
110135
109678
108414
106525
104138
101671
99405.6
97579.9
96327.8
95694.3
108531
108750
109146
109625
110013
110133
109671
108453
106507
104106
101631
99367.1
97546.8
96298.4
95667.2
108531
108747
109138
109610
109995
110102
109628
108393
106424
104007
101521
99266
97461
96224.3
95599.4
108525
108738
109122
109584
109960
110059
109571
108309
106306
103873
101375
99128.1
97342.6
96121.6
95504.6
108517
108726
109102
109555
109920
110015
109507
108217
106195
103732
101220
98983.2
97216.2
96009.9
95400.8
108509
108714
109084
109528
109885
109975
109452
108144
106095
103608
101086
98856.6
97103.2
95908.5
95305.6
108502
108705
109070
109508
109857
109941
109410
108086
106020
103517
100989
98764.5
97019.8
95832.6
95233.8
108498
108700
109063
109497
109842
109923
109386
108055
105979
103470
100939
98716.5
96975.8
95792.2
95195.4
107955
108262
108847
109638
110459
111083
110975
109507
106786
103419
100190
97544.6
95586
94302.1
93668.5
107962
108270
108858
109654
110481
111107
111006
109552
106845
103490
100262
97609.6
95642.2
94351.7
93714.5
107974
108286
108880
109686
110524
111155
111060
109638
106958
103633
100408
97737.5
95750
94445.3
93800.9
107992
108308
108912
109731
110586
111214
111125
109749
107100
103831
100620
97919.8
95898.4
94571.1
93915.6
108014
108336
108952
109788
110655
111274
111175
109841
107260
104080
100873
98132.7
96067.4
94710.3
94040.6
108037
108365
108993
109844
110728
111337
111254
109973
107461
104294
101137
98342.1
96224.9
94837.1
94152.6
108057
108390
109027
109897
110779
111406
111330
110078
107608
104437
101347
98491.5
96338.4
94925.1
94229
108073
108408
109049
109926
110816
111467
111410
109994
107649
104483
101396
98537.1
96374.2
94953.8
94253.3
108081
108415
109054
109925
110808
111441
111361
110096
107607
104433
101337
98480.5
96328.1
94914.9
94218.7
108083
108413
109044
109896
110781
111394
111298
109997
107459
104285
101114
98318.7
96204.4
94817.3
94132.9
108079
108403
109022
109861
110726
111349
111234
109874
107260
104064
100848
98104.8
96040.2
94683.4
94013.7
108073
108391
108998
109820
110672
111304
111198
109794
107111
103822
100597
97891.8
95868.7
94540.4
93884.3
108067
108380
108978
109785
110619
111255
111144
109695
106983
103633
100391
97712.4
95720.2
94412.8
93767.2
108062
108372
108963
109760
110581
111212
111096
109615
106879
103499
100251
97587.6
95613.3
94318.7
93679.7
108060
108368
108955
109748
110562
111190
111068
109574
106824
103432
100182
97524.5
95557.8
94269.2
93633.3
107109
107569
108487
109847
111524
113192
114241
112474
108278
103060
98622
95385.1
93169.3
91787.7
91126.7
107113
107575
108497
109863
111547
113222
114272
112533
108362
103163
98724.6
95472.8
93242.6
91851
91184.9
107122
107587
108518
109899
111602
113290
114331
112661
108540
103404
98946.5
95650.8
93385.6
91972
91294.9
107135
107607
108552
109958
111683
113387
114299
112847
108732
103793
99303.6
95916.1
93587.4
92137.1
91442.5
107152
107632
108598
110034
111802
113463
113602
112698
109631
104308
99757.8
96247.6
93824.3
92323
91605.3
107172
107662
108655
110142
111923
112727
113631
112854
109977
105733
100316
96595
94056
92494.9
91752.6
107191
107690
108700
110220
111329
112844
113724
113008
110201
106032
101690
96827.9
94219.9
92614.4
91852.8
107207
107712
108733
110260
111358
112924
113839
113012
110301
106160
101794
96897.9
94282.4
92656.3
91883.8
107219
107721
108736
110260
111368
112917
113804
113066
110280
106109
101747
96813.5
94208.7
92601.2
91839.2
107226
107719
108718
110214
112005
112841
113735
112974
110104
105897
100266
96557.9
94026.8
92467.1
91725.8
107228
107712
108685
110131
111905
113570
113725
112824
109835
104268
99706.1
96202.6
93785.1
92285.9
91568.9
107228
107703
108656
110073
111804
113511
114410
112909
108723
103756
99255.4
95870.2
93544.5
92094.8
91400.3
107227
107697
108635
110026
111732
113418
114454
112737
108564
103389
98912.4
95610.5
93342.9
91927.5
91249.5
107227
107692
108621
109996
111681
113350
114400
112616
108398
103163
98701.2
95437.7
93201.3
91806
91138.2
107227
107690
108614
109982
111658
113317
114373
112562
108322
103067
98603.8
95352.8
93129
91742.6
91079.5
105675
106300
107600
109674
112600
116293
120174
117703
110516
101581
95512
91832.6
89538.7
88197.2
87584.4
105675
106301
107604
109685
112620
116326
120195
117751
110630
101734
95650.6
91943.9
89630.8
88276.5
87656.9
105675
106305
107617
109718
112690
116424
120276
117880
110929
102088
95958.6
92172.7
89812.8
88429.7
87794.9
105676
106312
107642
109797
112873
116645
118097
118151
112729
103011
96561.5
92547.3
90075.9
88641.6
87982.1
105680
106324
107684
109896
113059
115233
118242
118391
113331
105710
97325.4
93014.3
90396.1
88882.5
88190.5
105689
106350
107758
110124
112246
115501
118454
118631
113848
106593
99871.8
93556.2
90708.3
89113.1
88380.9
105697
106360
107776
109585
112342
115691
117640
118144
114398
107911
100531
95581.9
90891.6
89252.3
88505.9
105716
106387
107872
109611
112424
115783
117770
118310
114680
108229
100858
95799.9
91087.3
89304.4
88551.7
105731
106398
107825
109621
112437
115803
117777
118326
114642
108183
100749
95723.2
90885.7
89235.8
88488.1
105751
106417
107836
110226
112361
115700
117740
118166
114331
106853
100139
93508
90665.6
89074.2
88343.9
105768
106418
107793
110027
113211
115478
118481
118558
113515
106117
97217.5
92941.2
90340
88830.9
88140.5
105783
106425
107769
109946
113049
116833
118321
118372
113072
102901
96466.5
92474.9
90013.5
88582.1
87923.8
105795
106431
107756
109878
112872
116605
120476
118100
110949
102042
95895.1
92110.3
89750.8
88367.4
87732.2
105804
106436
107750
109849
112801
116497
120394
117914
110667
101711
95603.1
91888.3
89570.5
88213.2
87592.2
105809
106439
107748
109839
112776
116444
120389
117836
110564
101573
95473.3
91780.7
89479.4
88133.7
87518.9
103418
104156
105754
108502
112893
119842
125586
131057
117477
96579.3
89626.7
86316.4
84429.9
83453.8
83046.4
103410
104148
105747
108499
112901
119850
125590
131092
117563
96767.7
89791.9
86445.9
84539.6
83549.1
83133.6
103394
104133
105734
108490
112919
119905
125615
131185
117779
97121.8
90093.6
86687.1
84755.2
83733.9
83300.5
103373
104116
105730
108535
113251
117807
125789
131462
118278
102139
90846.7
87064.7
85070.2
83995
83529.8
103347
104087
105702
108595
112097
118093
126152
129345
120254
103936
94801.7
87658.9
85427.7
84284.1
83786.6
103335
104065
105763
108260
112246
117260
124494
128746
121401
107322
96004.6
90597.8
85823
84551.3
84022.6
103320
104039
105766
108322
112408
117322
123725
129074
122606
109253
98365.7
91180
86021
84700.4
84170.3
103327
104031
105851
108413
111859
116939
123872
129365
123157
109788
98814.6
91479.4
88106.1
84714.2
84211.8
103359
104081
105820
108417
111899
117464
123970
129489
123240
109787
98741.3
91324.5
85999.2
84676.3
84145.4
103406
104145
105860
108360
112519
117502
123936
129283
122599
109112
98121
90905
85759.3
84499.5
83972.8
103448
104196
105835
108764
112306
118478
124668
129778
120989
106681
95286.9
87547.2
85348.1
84213.5
83719.9
103493
104245
105880
108724
113510
118129
126169
131794
118518
102584
90690.4
86958
84982.5
83914.2
83451.6
103529
104276
105897
108684
113166
120204
125940
131439
117996
96992.7
89983.7
86593.6
84668.3
83649.1
83216.2
103553
104299
105915
108695
113141
120131
125846
131294
117691
96695.5
89707
86361.2
84453.8
83462.1
83045.8
103566
104312
105925
108698
113129
120110
125835
131235
117571
96535.4
89556.6
86237
84345
83365.9
82957
100130
100831
102404
105288
110233
117112
133661
163761
120733
88289.4
78932.2
78085.4
77670.4
77627.9
77655.4
100111
100809
102377
105254
110195
117084
133603
163720
120801
88427.8
79101.9
78222.7
77795.7
77738
77756.7
100072
100761
102313
105150
110038
117003
133424
163594
121015
88815.4
79309.1
78469.2
78038.6
77948.8
77951
100019
100696
102228
104907
109453
117281
133259
163311
121333
89743.2
83441.8
78722.6
78390.9
78248.9
78220.9
99940.4
100587
102002
105005
109402
116330
130231
163044
123781
95382.4
84509.5
81760.5
78749.1
78590.2
78526.1
99872.2
100435
102532
105027
109148
116186
128653
157959
131210
99927.2
88371.3
82608.5
81052.4
78885.6
78811.3
99839.7
100394
102532
105011
109158
115776
128415
157779
134396
102504
90945.1
85040.2
81412.9
79118.2
79002.2
99823.2
100379
102610
105060
109178
115780
128419
157947
135859
103894
91760.9
85465.2
81700.4
79175.8
79018
99882
100441
102590
105122
109265
115896
128680
158664
136997
104192
91765.2
85431.7
81576.9
79092.6
78969.9
99951.2
100526
102639
105119
109350
116073
129031
159031
134297
102308
90734.9
84836.7
81210.7
78829.2
78750.7
100052
100709
102158
105165
109618
116655
129346
158955
129705
98819.8
87730.7
82075
78648.7
78501.3
78442.2
100149
100839
102395
105126
109591
117541
130903
163827
121934
94447.5
83589.5
78575.2
78278.1
78146.4
78121.1
100218
100919
102494
105369
110328
117349
133863
163959
121083
88927.1
79134.5
78339.2
77923.8
77838.4
77841.6
100266
100974
102563
105475
110472
117405
133962
164070
120922
88469
78967.5
78101.7
77679.1
77622.6
77641.2
100290
101000
102592
105508
110502
117421
134030
164107
120817
88258.7
78819.3
77970.7
77553.8
77510.3
77537.1
95766.4
96172.5
97086.1
98791.8
101644
108361
115774
113330
26585.6
57198.1
63622.3
67354.9
69715.6
71185.5
71859
95738.1
96139.3
97043.5
98732.2
101577
108277
115684
113142
26452.5
57320.8
63771
67512.6
69862.6
71310.7
71973.3
95678.4
96061.8
96943.1
98615.4
101392
108062
115424
112751
27225
57824
64105.9
67896.6
70162.5
71555.2
72196
95593.7
95942.4
96785.7
98267.7
102662
107467
114879
112017
28235.2
59025.4
66399
68612.8
70652.3
71917.1
72514
95477.2
95779.1
96512
99399.1
102261
107702
115256
110786
32546.4
65058.3
69575.8
70992.1
71327.5
72381.6
72886.7
95353.5
95637.2
97674.1
99209.7
102707
107793
114510
108819
50419.6
70846.8
73070.5
72119.6
73207.4
72874.4
73238.8
95316.1
95587.2
97627.6
99098
102938
107563
113935
106859
66482.8
76528.9
75350.4
74371.1
73672.1
73208.3
73489.9
95307
95566.9
97598.8
99820.8
102922
107508
113771
106138
67839.2
77937.3
76518.1
75744.2
73995
73313.8
73543.8
95362.6
95638.6
97638.8
99854.4
102990
107647
114097
107071
82563.5
78676.8
76693
75788.4
73896.3
73195.3
73463.9
95432.1
95724.1
97741.3
99260.6
103120
107928
114760
109297
75591.1
76746.8
75375
74264.7
73485.5
72829.5
73181.1
95594.9
95907.7
96671
99481
103018
108261
115471
111232
32262.3
68364.5
72457.9
71523.5
71253.4
72295.5
72793.4
95732.7
96093
96961
98490.5
102801
107515
115049
112564
26949.1
61353.1
66572.8
68477.9
70532.2
71800.4
72395.2
95831.8
96225.6
97130.4
98841
101685
108184
115698
113257
25737
57744.1
63900.7
67747.8
70025.5
71420.2
72060.5
95900.4
96310.6
97234.8
98959.1
101854
108569
116041
113663
26515.8
57294.9
63600.2
67358.7
69714.5
71164.2
71826.9
95932.8
96347.4
97279.3
99016.3
101914
108686
116191
113877
26136.4
57078.6
63464.6
67201.3
69563.2
71033.8
71707.4
90617.7
90486.4
90201.4
89777.7
89619.5
93587.1
97299.6
110709
6488.43
35408.9
49579.2
57225.7
62245.7
65180.8
66503.2
90587.3
90450.6
90158.4
89725.1
89575.7
93514.7
97220
110473
2209.44
35486.5
49701.6
57407.4
62407.3
65315.5
66625.5
90526.2
90375.2
90066.5
89649.5
89459.5
93330.5
96998.7
110230
5520.4
35941.6
50212.1
57866
62745.1
65591.4
66869.7
90445.2
90260.1
89930.9
89631.7
92202.9
93132.8
96564.6
109814
4090.55
37074
50984.4
58782.8
63344
66023.3
67232.4
90347.2
90135.9
89850.4
91606.3
92087.4
94767.9
97270.3
109301
9290.55
39015.8
53094.3
60418.6
64159.3
66597.5
67675.9
90254.1
90116
91398.3
91460.1
93198.9
95347.2
96805
108373
10455.4
43552.4
55683.7
61651.3
65514.4
67189.7
68102.3
90236.9
90108
91268.7
91401.5
93764.7
95131.4
96445.1
107801
28305.4
46273.1
57709.1
63243.1
66153.8
67579.7
68394.2
90233.9
90098.5
91231.7
92370.2
93726.6
95069.7
96339.4
107505
2220.83
45162.8
59323.1
64375.4
66593.4
67733.8
68481.1
90282.5
90156.3
91266.3
92405
93788.9
95177.1
96532.5
107978
2155.42
48914.1
60421.3
64664.6
66559
67598.2
68382.8
90337.2
90204.3
91372.2
91565.5
93927.1
95419.6
96942.7
108677
60176.1
50203.8
59230.5
63623.7
66059.3
67184.5
68060
90464.2
90259.7
89998.5
91638.9
93496.8
95746.8
97428
109355
8332.89
43593.1
56069.4
61300.5
64161.5
66537.1
67582
90584.6
90407.3
90093.5
89821.2
92423.4
93507.3
97008.7
110175
3795.65
37956.8
51898.2
58757.7
63242.9
65902
67097.8
90681.7
90537.6
90244.1
89851.8
89694.2
93545.1
97176.2
110450
4651.09
36177.5
50061.1
57727.3
62597.3
65435.2
66708.4
90751.4
90620.4
90340.1
89927.9
89805.5
93730.3
97473.8
110746
3056.22
35534.4
49526.8
57233.1
62228.3
65136.1
66446
90785.8
90659.5
90385
89979.8
89848.3
93857.6
97632.2
110921
3934.8
35277.3
49381.6
57032.2
62053
64990.9
66314.7
85405.5
84676
83161.5
80750.3
80282.3
78873.9
81256.5
2173.94
27046.3
42174
51096.1
57259.4
60944.5
62659.6
85378.4
84644.4
83124.7
80711.9
80236
78827.8
81212.8
2195.2
27084.4
42262.3
51262.1
57404.5
61070.4
62774.8
85329.9
84590.1
83050
80627.9
80194.4
78753.1
81086.2
2205.51
27114.5
42695.5
51621.5
57700.4
61333.1
63006.4
85278.9
84525.7
82949.1
80684.2
80366
78557.5
80780.4
2222.08
27614.2
41934.4
52389.3
58227.5
61751.7
63359.1
85237.3
84473.9
83012.7
82792.2
80795.8
80483.5
81218.3
2249.08
26132.5
42335.9
52655.1
58948.9
62309.2
63797.4
85209.2
84565.2
84497.8
82969.3
82017.3
81299.3
80953.7
2250.32
26680.3
43117.8
53520.3
59398.7
62799.9
64232.6
85215.5
84577.2
84464
83011.9
82741.7
81223.6
80790.3
2267.25
24643.6
44418.3
54307.9
60025.2
63121.8
64504.3
85219
84584.5
84457.1
83888.2
82836.7
81208.6
80756.1
29047.4
36673.4
47559.1
55343.5
60375.1
63266.2
64591.1
85259.6
84622.4
84485.9
83926.6
82881.6
81272.7
80845.9
84915.9
59809.4
50524.2
55919.8
60396.1
63136.9
64488.8
85295.5
84656
84551.3
83128.1
82869.2
81396.8
81026.8
2181.57
37818.6
48270.5
55155.4
60026.5
62785.9
64180
85355.8
84594.6
83146.3
82906.5
82170.8
81530.6
81260.1
2940.13
30565.5
45016.5
53609.1
58954.3
62237.7
63684.4
85419.9
84669.7
83097.9
80843.2
80559
78828.8
80598.1
2365.25
27551.3
42887.8
52412.4
58116
61608.4
63196.5
85486.4
84747.8
83209.5
80783.4
80326.9
78830.6
81092
2360.56
27308.9
42545.1
51468
57520.5
61143.6
62812
85542.9
84809
83288.4
80874.3
80423.3
78974.1
81336.9
2369.32
27036.4
42033.2
51040.3
57175.9
60848.5
62555.6
85573.6
84843.9
83328.4
80917.7
80433.7
79054.3
81473
2390.67
26976.2
41910.9
50840.4
57011
60707.7
62428.1
81066.2
79784
77093.6
72405.7
69827.7
61657.7
56899.2
2347.57
2174.32
26469.3
40200
49334.3
55564.3
59326.3
61122.2
81038.4
79749.5
77045.8
72340.3
69768.7
61609.3
56883.4
2298.62
2194.8
26552.2
40202.9
49458.6
55665.7
59423.9
61211.6
80991.4
79695.4
76954.4
72187.8
69668.5
61511.7
56949.3
2285.44
2207.57
22906.8
40530.6
49677.3
55878.2
59626.7
61386.8
80947.9
79647
76807.4
72038.8
69489
61228.4
56813.5
2439.08
2230.01
23435.4
37978.1
50139.5
56244.8
59946
61665.9
80929.7
79600.1
76693.9
74996.4
69044.8
63998.9
58381.1
2590.69
2294.72
20626.7
37120.8
48997.8
56754.1
60386.8
62009.4
80929.3
79592.5
78667.9
74790.2
70990.5
65205
58216.4
3180.63
2302.44
20547.6
36893.8
49486.2
56193
60752.4
62358.1
80934
79583.8
78637.8
74626.8
71820.9
65115.3
58145.3
2460.65
2260.97
19312.9
37255.2
49152.3
56590.7
60957.2
62549.9
80940.9
79597.6
78621.5
76083.7
71783
65112.1
58174.4
2459.23
2298.77
10056.6
37596.3
49284.8
56780.1
61037.4
62601.4
80981.2
79631.4
78657.2
76130.9
71814.5
65149.1
58236.8
3816.08
2189.07
2319.48
39065
49658.9
56752.8
60903.1
62494.8
81021.6
79685.3
78749.6
74761.2
71931.9
65217.8
58286.5
2305.9
2323.19
26915.1
40011.4
49714.2
56491.9
60640.2
62245.9
81057.7
79729.3
76825.1
75088.8
71171.3
65342.1
58360.7
2283.54
3005.3
24271.8
38618
49471.2
56595.5
60227.7
61836.6
81098.5
79797.3
76953.4
72166.6
69423
61159.4
56572.1
2325.32
2342.86
22800.2
38533.8
49957.1
56012.8
59730.7
61444.8
81155.2
79855.3
77104.2
72309.5
69637.9
61383.9
56692.5
2789.85
2372.92
22715.4
40170.1
49376.4
55596.2
59369
61144
81208.6
79914.3
77196.9
72465.9
69841.1
61614.1
56874.7
2316.63
2383.56
25733.1
39789.5
49089.7
55342.7
59138
60940.7
81239.1
79951
77246.8
72536.6
69929.3
61760.1
57033.1
2589.68
2406.15
25962.7
39789.2
48956.7
55230.4
59028.1
60839.3
78447.7
76750.1
73139.7
66765.5
55798.8
45190.8
19207.9
2276.91
2178.85
29319
42557.8
51152.5
56956.7
60432.9
62089.5
78410.3
76700.8
73057.1
66642.7
55610.2
45003.4
19346.2
2307.77
2196.91
29123.8
42450.2
51196.8
57001.2
60491.4
62146.2
78347.7
76624.2
72930.9
66467.9
55317.3
44634.1
19550.3
2277.47
2213.12
23770.7
42502.9
51322.4
57123.7
60613.6
62257.8
78282.8
76559.9
72757.1
66244.4
59687.9
44164.7
19715.7
2272.57
3089.58
24166.3
38555.4
51604.7
57347.7
60809.5
62429
78248.8
76515
72672.3
68765.2
59482.6
47859.8
25742.4
2262.61
2266.81
20189
37077
49304.8
57723.5
61120
62648.1
78248.2
76494.4
74306.8
68676.6
61663.3
49633.9
26161.5
2272.71
2287.61
20405.1
36760.1
49848.3
56265.5
61378.7
62881.8
78248.1
76477.7
74335.8
68596.9
62627
49624.5
26181.3
2278.75
2318.66
18607.9
36748.2
48765.1
56509.9
61481.4
62977.4
78260.6
76496.3
74347.3
70007.7
62578
49663.6
26258
11313.5
2286.87
2288.4
34754
47893.5
56489.3
61467.9
62976.3
78305.8
76537
74382.8
70041.4
62592.9
49656.4
26276.2
2310.67
2265.93
7793.75
34745.5
47668.4
56317.4
61314
62863.2
78357.8
76606.6
74450.5
68716.7
62693.7
49654
26248.4
2267.46
5293.68
21191.8
36462.8
48136.6
56056.9
61112.4
62681.1
78399.6
76669.3
72833.1
68938
61790.3
49720.4
26232.3
2257.7
2332.06
21797.2
36442.9
48950.9
57278.8
60816.1
62396.1
78457.3
76734.3
72927.6
66394.3
59719.8
44138.4
20825.1
2263.37
2366.58
21877
38321.2
51058.8
56926.8
60484.8
62145
78533
76803.8
73094.2
66590.6
55345.3
44389.6
19136.3
2282.61
2379.56
23170.3
41819.1
50795.5
56706.3
60267.7
61948.2
78599
76880.4
73213.5
66752
55644.1
44810.6
19251.7
2254.91
2389.6
27983.4
41811.6
50637.6
56568.2
60129
61816.3
78637.1
76928.8
73292.6
66871.9
55841.8
45154.4
19469.6
2267.97
2413.83
28486.2
41949.1
50622.2
56527.8
60067.2
61753.6
78196.7
76465.9
72758.2
66338.3
55331.5
42452.6
7449.07
2291.42
10572.2
38070.5
49032
56310.2
61128.2
63941.8
65281.6
78144.3
76394.2
72624.4
66082.6
55009
41448.3
6824.63
2262.09
8774.87
37527.2
48750
56240.9
61104
63955.3
65301.4
78063.1
76288.1
72436.9
65772.9
54926.8
40418.5
9064.29
2296.05
2216.17
29001.2
48733.6
56267.3
61125
64001.2
65348.9
77981.4
76202.4
72270.6
65556.5
56857.6
39472
9452.45
2277.63
5145
29103.9
43643
56444
61220.9
64091.3
65433.8
77941.6
76170.5
72259.4
66904.2
56444.4
41727.5
18454.3
2287.62
2278.83
24381.9
41924.8
53478.2
61513.5
64295.7
65560.8
77949.6
76193.6
73063.5
66773.9
57858.4
42848.9
18459.1
2269.46
2251.56
28352.8
43113.3
54322
59493.5
64490.3
65710.9
77956.3
76190.2
73081.5
66751.2
58575.6
43011.8
18820.5
8864.41
2085.13
38991.9
46805
53503.8
59699.2
64529.9
65747
77982.5
76219.9
73126.8
67712.7
58570.2
43278.7
19616.2
2227.4
2312.82
25569.5
45114.1
52371.2
59547.3
64453.1
65707.5
78031.6
76271.9
73176.6
67746.4
58561.1
43080.1
18794.7
2293.54
2274.44
20537.4
41033
51184
59199.6
64285.6
65583
78090.7
76345.8
73223.2
66914.8
58632.1
42876.6
18515.1
2315.99
6397.63
23910.6
39735.8
51132.9
58853.4
64111.7
65442
78133.3
76374.8
72493.1
67117.7
58041.4
42954.5
18522.6
2263.22
2341.42
23783.8
39198.1
52360.1
60864.3
63889
65246.2
78199.3
76427.7
72510.6
65804.3
56862.6
39757.1
17830.2
2260.07
2342.12
24743.4
42535.1
55634.3
60666.1
63692.9
65101
78289.2
76512.7
72652.5
65953.6
55061.5
39911.7
9039.31
2295.08
2389.8
27455.9
47699
55566.6
60612.1
63600.6
65001.8
78369.5
76609.8
72813.2
66202
54986.8
41420.3
6337.69
2246.59
3102.07
35898
47716.4
55508.2
60593.7
63546.7
64941.2
78419.2
76674.7
72931.5
66426.7
55317.3
42181.6
6953.18
2266.4
7652.21
36757.1
48131.3
55635.9
60633.1
63536.3
64919.6
80504.5
79239.4
76572.8
72327.8
63725.4
54054.6
22543.9
2242.02
40311.1
55762.3
60169.1
64783.3
67681.2
69380.2
70222.8
80438
79139.6
76374.1
71847.2
62759.2
52309
12130.1
2274.4
38566.2
55149.2
59660.6
64578.6
67584.3
69348.6
70208.3
80341.4
79001
76117
71208.4
63754.2
48695.1
15948.8
2479.21
20856.7
43302.2
59665.6
64368
67478.6
69323.2
70199.7
80250.9
78875.3
75855.5
70777.3
62396.3
46795.8
17065.6
2375.39
8277.79
40908.8
53433.9
64258.6
67381.5
69310.7
70210.8
80212.2
78821.4
75794.2
70401
61287
46310.4
21447.9
2277.01
2253.44
33295.2
50686.4
60651.4
67524.4
69402
70261.7
80230.1
78876.4
75525.2
70000.6
61157.9
46073.1
20644.6
2320.61
2296.05
39875.5
52144.1
61196.9
65065.7
69543.7
70350.7
80249
78893.4
75458.2
69927.5
61264
46249.4
22192.5
2284.21
2220.44
85587.2
59379
60481.5
65169.7
69551.2
70350.6
80292.7
78943.1
75513.5
70169.4
61286.5
47172.5
40117.3
2459.59
2590.97
87123.7
60075.5
59687.3
65008.2
69472.2
70302.9
80348.5
79009.3
75591
70238
61302.8
46493.5
25351.7
6455.48
2281.27
42210.6
52278.6
58185.6
64683
69336.9
70197.2
80414.2
79088.4
75675
70258.8
61456.3
46033.1
20766
2315.24
6822.95
32791.3
48165.6
57890
64397
69208.2
70099.6
80459
79098.2
76144.2
70560
61642.7
46492.4
20816.7
5967.17
2394.18
31341.1
47171.6
59525.9
66989.6
69036.4
69967.2
80528.6
79176.2
76209.3
71213.6
62203.4
46701.4
20841.2
2289.01
2366.55
33736.8
51944.2
63550
66888.9
68943.8
69896.9
80625.8
79294.9
76427.4
71522
64107.7
47857.9
16298.8
2356.91
14544.7
40096.8
58668.8
63717.4
67001.9
68949.8
69873.6
80716.3
79412.1
76622.9
72012
62552.6
51891.1
7408.82
2362.57
35048.9
53867
58551.2
63870.8
67098.4
68961.4
69869.5
80776.4
79497.7
76790.1
72418.1
63482.8
53349
17928.7
2390.82
37289.6
54685.4
59155.9
64112.3
67205.8
68995.2
69883.5
84824
84381.1
83548.8
83476.4
83008.9
91316.3
132308
127296
97130.7
80845.3
75735.2
75763.8
75776.6
76042.4
76262.5
84752.5
84257.7
83306.8
82837.6
81625.1
89343.9
128088
112559
94100.7
79711.1
75047.1
75449.7
75625
75974.7
76221.3
84650.7
84083.7
82978.2
81376.5
80374.7
73454.7
77891.7
64186.6
68665.8
68696.7
74109.9
74736
75392.5
75884.7
76166.9
84561.1
83926.4
82589.2
80620.5
74902.5
67791.6
54545.3
17326.6
40997.8
63994.1
68198.5
74088
75035.2
75769.5
76111.3
84533.3
83856
82461.8
78262.3
73414.6
63013.2
40651.4
4838.51
19585.3
51243.4
63585.9
70199.6
74959.2
75733.8
76089.9
84572
83924.3
81021
77802.4
71367
59867.7
35351.7
2231.56
11188.5
46151.3
60746.3
69725.2
72235.5
75749.4
76121
84610.5
83969.4
80901.3
77757.3
70553.8
58438.1
32761.8
2300.14
2368.6
34327.8
59929.1
67577.2
72118.4
75721.9
76094.4
84673
84045.3
80982.7
77083.6
70511.5
58501.5
37921.6
2434.94
2321.15
15442.1
60279.3
66650
72060.5
75679.8
76063
84732.6
84115.2
81095.8
77232.6
70749.6
58767.8
32364.5
7408.98
25058.1
46639.6
60285.7
66401.9
71999.6
75620.7
76003.8
84797.1
84190.5
81224.3
78337.1
71245.8
59707.9
33288.2
2263.36
16152.5
47040.3
60176.5
67374.2
71979.8
75582.8
75968.5
84835.9
84208.3
82940.3
78580.3
72490.9
61555.6
37523.5
2249.11
17268.1
48748.8
60816.1
69848.6
74782.1
75537.6
75894.9
84902.6
84311.6
83078.7
81309.5
74935.8
67664.9
43049.7
3426.26
14879.8
54816.4
67138.4
73823
74766.3
75531.7
75885.8
85001.5
84462.2
83418.3
81899.3
81027.3
70487.5
59931.2
45617.1
52817.6
64882.2
73612.4
74387.3
75098.1
75621.8
75921.4
85094.8
84607
83661.5
83188.8
81651.4
89277.3
127104
102420
91193.6
78946.5
74327.2
75022.6
75291
75684.9
75955.2
85158.1
84710.6
83858.9
83707.9
82852.1
90714.7
130605
115787
94550.1
80045.4
74980.5
75323.4
75432.4
75748.9
76000.3
89968.5
90319.4
91023.4
93922.7
98808.8
104254
129202
132892
112792
97489.6
89737.1
86115.6
83804.8
82889.1
82540.4
89923.7
90228
90888.9
93617.6
98270.4
104361
132278
140791
114659
97006.2
89298.2
85868.9
83674.1
82823.6
82500.1
89856.7
90059.2
90684.2
92153.3
96460.6
99682.2
121714
149190
118619
95476.4
87944.8
85046.3
83427.5
82705.7
82431.9
89806.8
89941.6
90324.5
91385.1
90883
96407.4
113062
141894
114936
92102
84925
84088.4
83039.4
82555.1
82347.5
89821.5
89917.3
90171.8
88499.4
89210.3
89154.9
94573.7
124050
95148.5
82007.6
80694.4
81309.3
82748.1
82437.6
82279.9
89909.6
89954.4
88300.2
88189.8
86502.9
84624.7
83475.8
68754.7
50411.8
71506
76268.9
80474.6
80596
82331.8
82264.4
89981.4
90027.4
88361.8
88239.8
85212.7
82504.3
65794
2277.8
57795.1
53828.7
72336.7
78023.9
80419.9
82269.5
82222.7
90062.3
90127.4
88499.5
87082
85434.8
82416.5
61527.3
2311.04
2278.63
33005.4
70239.7
76677.2
80355.6
82254.4
82208.9
90113
90180.1
88621.3
87267.4
85873.4
83812.3
69687.4
2286.79
32317.2
61888.7
73751.7
77270.2
80447.3
82243.6
82183.5
90156.2
90244.4
88707.2
88807.5
86394.6
85889.6
80296.4
11702.6
63618.9
75110.7
77309.6
79124.2
80646.6
82293.6
82212.6
90159.1
90313.5
90710.6
89170.7
88212.4
88128.2
93253.5
146326
86293.8
81212.9
79547.2
81361.4
82772.4
82374.9
82175
90194.7
90389.2
90915.4
92271.7
91712.5
97186.9
106981
164823
104710
88554.3
84734.4
84210.5
83015.3
82456.3
82224.1
90263.6
90514.7
91257.7
92953.7
97771.5
100774
125020
157035
120928
95701.3
88181.2
85083.6
83343.1
82579.7
82290.5
90327.6
90663.5
91383.4
94276.5
99059.9
105390
135598
142969
116496
97350.2
89230.2
85811.7
83540.4
82670.2
82341.7
90366.9
90738.2
91475.6
94463.5
99403.4
104744
131509
136289
114688
97441.7
89556.1
86019.9
83647.7
82724.5
82375.5
94595.7
95270.1
96334.3
98699.7
103048
102421
105253
110168
105660
100809
96364.9
92797.4
90125.5
88810.6
88175.3
94626.8
95297.4
96451.9
99059.4
103700
103938
108925
114022
107354
101358
96694.5
92874
90130.1
88803.2
88170.1
94673.9
95279.2
96663.3
99025.9
103381
105750
111158
122654
111512
103052
96438.2
92680.7
90106.6
88761.4
88152.9
94738.1
95335.3
96674.1
99374.6
100843
107550
118127
132849
118541
103838
96209.8
92383.7
89962.7
88689.9
88117.4
94837.5
95428.4
96778.7
97423.3
101261
106867
118916
140812
123329
104518
95363.4
91244.8
89774.5
88606.5
88074.9
94969.7
95480.8
95557.2
97537.4
100181
107215
127045
165052
125519
104223
94462.5
90969.5
88726.5
88459.4
88053.6
95091.6
95620.1
95742.8
97963.8
100084
109567
135459
227219
149678
104788
93797.2
90040.2
88647.9
88400.3
88023.8
95192.1
95743.1
95908.3
97051.6
100763
111425
142417
187039
155760
104010
93330.5
89584.7
88541.8
88385.9
88018
95220
95773.5
95967.2
97140.1
100970
111639
140472
178986
138144
104573
94101.5
89835.2
88597.4
88390.3
88001.3
95213.4
95771.3
95935.8
98254.1
100684
110698
136401
200010
138239
106850
95232.8
90540.9
88764.6
88440.8
88015.2
95175.8
95828.4
97346.2
98126.3
101085
109084
129254
163170
132138
107324
95894.7
91451.6
89851.7
88588.2
88027.9
95134.8
95794.7
97284.8
100287
102344
110772
124505
150866
129531
106948
96761.8
92638.1
90029.3
88663.7
88061.6
95102.6
95766.4
97288.4
99912.6
104666
108762
117519
131249
115468
104979
96980.8
92922.9
90153.5
88731.5
88090.5
95063.8
95786
97036.1
99872.8
104886
105480
111703
118749
109779
102285
97156.2
93078.3
90148.4
88761.3
88099.5
95034
95754.2
96902.6
99437.8
104209
103727
107867
113925
107757
101469
96803.4
92982.9
90127.9
88763.7
88101.1
98006.7
98590.1
99394.3
100305
102915
102464
101730
105982
102672
100891
98612.2
96323.3
94379.2
93268.2
92643.8
98124.6
98742.5
99674.7
100948
103944
103710
104390
105842
103807
101868
99315.7
96642.6
94533.9
93345.4
92695.6
98323.3
98933.4
100197
101923
104948
106177
109440
114404
109380
104260
100157
97122.8
94797.1
93451.2
92779.3
98553.8
99251.9
100693