/*--------------------------------*- C++ -*----------------------------------*\
| =========                 |                                                 |
| \\      /  F ield         | OpenFOAM: The Open Source CFD Toolbox           |
|  \\    /   O peration     | Version:  v2012                                 |
|   \\  /    A nd           | Website:  www.openfoam.com                      |
|    \\/     M anipulation  |                                                 |
\*---------------------------------------------------------------------------*/
FoamFile
{
    version     2.0;
    format      ascii;
    class       volScalarField;
    location    "0.036";
    object      p;
}
// * * * * * * * * * * * * * * * * * * * * * * * * * * * * * * * * * * * * * //

dimensions      [1 -1 -2 0 0 0 0];


internalField   nonuniform List<scalar> 
449343
(
103976
104113
104342
104564
104664
104420
103640
102249
100299
98000.3
95647.6
93517.1
91802.3
90614.6
90009.6
103959
104096
104325
104548
104648
104403
103623
102232
100284
97988.3
95636.8
93505.9
91789.9
90600.8
89995.1
103943
104081
104311
104535
104634
104387
103606
102218
100273
97982
95633.6
93502.3
91783.6
90592
89984.8
103928
104067
104298
104522
104621
104370
103589
102201
100262
97978.1
95635.5
93504
91781.6
90586.3
89976.9
103913
104053
104285
104509
104608
104351
103568
102182
100250
97974.6
95639.2
93507.7
91781
90581
89969.1
103897
104037
104270
104493
104593
104332
103547
102163
100238
97970.9
95641.2
93509.3
91777.7
90573
89958.5
103877
104018
104252
104475
104574
104310
103525
102142
100222
97961.5
95633.8
93503.1
91767.4
90558.8
89942.3
103853
103994
104228
104451
104549
104284
103494
102109
100191
97938.4
95613.7
93483
91745.8
90536
89918.9
103825
103966
104199
104422
104520
104256
103470
102085
100166
97905.8
95578.6
93448
91712.6
90504.3
89888
103793
103933
104166
104388
104487
104224
103438
102054
100128
97860.7
95531.3
93400.2
91669.4
90465.6
89851.6
103760
103899
104131
104353
104450
104193
103409
102022
100090
97814.3
95479.7
93349
91623.2
90424.1
89812.7
103727
103865
104095
104318
104416
104164
103382
101994
100056
97772.3
95430.5
93299.8
91578.2
90383.4
89774.4
103696
103833
104062
104284
104383
104136
103355
101967
100024
97734.4
95387
93256.2
91537.7
90346.3
89739.1
103667
103804
104032
104254
104354
104109
103330
101942
99995.6
97701.3
95350.9
93220.2
91503.8
90314.4
89708.4
103643
103779
104007
104229
104329
104085
103307
101918
99970.8
97674.6
95323.1
93192.5
91477.1
90288.6
89683.1
103822
104007
104337
104714
104994
104974
104330
102876
100672
98032.7
95380
93049.6
91224
89982.5
89356.4
103805
103990
104321
104698
104979
104958
104313
102860
100659
98023.5
95372
93040.2
91212.4
89969
89342.1
103789
103975
104308
104687
104969
104945
104298
102848
100652
98024.1
95375.7
93040.8
91208
89960.9
89332.1
103774
103962
104297
104679
104959
104928
104277
102825
100641
98027.7
95388
93049.2
91208.9
89956.1
89324.5
103760
103950
104288
104671
104950
104903
104253
102803
100617
98032.6
95406.1
93062.1
91211.9
89951.9
89316.9
103744
103935
104277
104662
104941
104886
104228
102784
100613
98038.3
95423
93073.9
91212.7
89944.8
89306.2
103724
103918
104261
104648
104921
104871
104210
102764
100601
98041.1
95438.8
93078.3
91205.2
89931.2
89289.8
103700
103894
104238
104625
104898
104844
104173
102683
100562
98015.4
95420.3
93059.3
91183.2
89907.9
89265.6
103672
103865
104208
104593
104865
104815
104152
102707
100542
97983.1
95381.5
93020.7
91148.9
89874.9
89233.8
103640
103831
104171
104556
104833
104776
104116
102669
100498
97922.7
95307.7
92959.9
91099.4
89833.7
89196.2
103605
103794
104131
104513
104790
104741
104089
102638
100449
97866
95240.8
92898.2
91049.3
89790.9
89156.8
103571
103759
104092
104472
104750
104717
104065
102613
100430
97817.2
95178.4
92840.8
91001.3
89749.5
89118.4
103539
103725
104056
104434
104714
104689
104043
102593
100400
97773.6
95126.2
92791.7
90959
89712.2
89083.4
103511
103696
104025
104402
104682
104661
104018
102568
100370
97736.6
95086.1
92753.7
90925
89680.6
89053.2
103487
103671
103999
104376
104655
104636
103995
102544
100345
97708.8
95057.2
92725.7
90898.2
89655.1
89028.2
103430
103724
104283
105025
105777
106326
106091
104474
101591
98058.7
94670.1
91887.2
89822.3
88467.2
87798
103412
103707
104268
105012
105766
106313
106074
104460
101582
98056.4
94668.5
91881.5
89812.3
88454.5
87783.9
103396
103693
104258
105007
105764
106306
106057
104453
101584
98075.7
94689.3
91891.1
89811.6
88447.7
87774.4
103382
103682
104253
105008
105768
106295
106022
104437
101559
98100.8
94732.6
91916
89818.3
88444.7
87767.4
103368
103672
104250
105013
105772
106258
105944
104349
101499
98149.2
94787.3
91948.8
89829
88442.3
87759.9
103352
103661
104248
105018
105784
106233
105906
104341
101512
98191.4
94854.8
91984.2
89836.7
88436.5
87748.6
103333
103645
104236
105016
105762
106229
105883
104318
101505
98209.1
94972.7
92012.7
89837.3
88423.4
87730.8
103309
103623
104215
104997
105747
106217
105882
104291
101468
98182.7
94947.9
91992.7
89814.2
88398.6
87704.8
103279
103590
104180
104959
105703
106168
105820
104254
101438
98143.7
94909.1
91947.1
89773.8
88361.9
87670.6
103246
103554
104140
104908
105673
106116
105784
104213
101382
98062.2
94725.6
91858.4
89713.7
88317.3
87631.4
103210
103513
104089
104849
105603
106086
105768
104171
101319
97966.4
94606.4
91771.5
89655.3
88272.1
87591.5
103175
103474
104043
104796
105553
106073
105800
104213
101335
97877.5
94511.2
91697.4
89601.4
88229.7
87553.5
103143
103439
104001
104748
105502
106041
105793
104191
101323
97817.7
94432.2
91634.7
89556.1
88192.6
87519.5
103114
103408
103967
104709
105461
106005
105772
104164
101293
97771.2
94384.6
91594.1
89521.7
88161.9
87490.5
103090
103383
103940
104680
105431
105978
105749
104141
101267
97740.5
94352.7
91565.1
89495.3
88137.1
87466.3
102669
103122
104026
105355
106974
108593
109529
107600
103224
97818.7
93184.1
89774.7
87428.9
85961.1
85257.3
102650
103105
104012
105345
106969
108587
109507
107588
103216
97825.4
93190.1
89772.2
87419.8
85948.5
85243.3
102633
103091
104005
105350
106983
108600
109499
107608
103263
97890.8
93236.4
89790.6
87421.5
85942.3
85233.7
102616
103079
104006
105371
107014
108637
109329
107624
103184
98026.1
93343.1
89833.1
87432.2
85939.7
85226
102600
103070
104013
105393
107056
108578
108567
107329
103984
98228.2
93483.5
89898.9
87447
85936.1
85216.3
102584
103063
104030
105458
107140
107783
108435
107310
104056
99491.8
93662.8
89969.1
87460.4
85926.1
85201.1
102563
103049
104030
105470
106462
107809
108396
107271
104038
99534.6
94950.5
90007.6
87456.6
85909.2
85178.9
102538
103029
104015
105457
106443
107812
108403
107157
104016
99524.1
94910.9
89982
87437.7
85883.9
85148.2
102506
102992
103970
105410
106404
107762
108340
107192
103972
99470.8
94868
89924.1
87378.4
85838.6
85111.8
102475
102952
103918
105344
107021
107676
108292
107161
103908
99386.1
93500.4
89818.2
87319
85793
85072.8
102438
102906
103846
105221
106879
108389
108367
107137
103841
98015.6
93270.5
89694.5
87253.3
85750.9
85035.3
102404
102866
103789
105150
106789
108396
109093
107385
102943
97786.4
93102.1
89596.1
87199.8
85711.9
85000.8
102372
102829
103740
105080
106710
108316
109216
107330
102985
97620.7
92969.1
89525.3
87156.9
85678.5
84970.4
102345
102798
103702
105033
106654
108262
109192
107289
102935
97551.9
92916
89486.6
87126.6
85651.5
84944.5
102321
102773
103674
105000
106619
108229
109175
107267
102913
97520.6
92883.4
89460
87103.2
85629
84922.3
101337
101964
103267
105338
108238
111867
115763
113069
105691
96557.3
90213.5
86303.3
83842.5
82391.3
81724.5
101315
101944
103251
105330
108239
111875
115742
113061
105700
96579.6
90224.6
86299.3
83831.6
82377.7
81709.7
101293
101925
103242
105340
108280
111932
115757
113083
105790
96677.4
90286.1
86315.4
83829.9
82369.3
81698.3
101269
101909
103245
105401
108447
112113
113435
113193
107425
97207.3
90514.2
86373.2
83835.5
82362.7
81687.1
101243
101890
103255
105454
108528
110595
113418
113161
107576
99565.9
90758.7
86437.8
83840.8
82349.4
81670.6
101220
101885
103299
105652
107654
110788
113456
113076
107592
99872
93023.8
86561.8
83822.1
82330.1
81645.6
101190
101856
103278
105038
107708
110880
112511
112402
107957
100909
93255.7
88421.8
83748.8
82282
81609.2
101166
101840
103319
105022
107731
110897
112519
112372
107978
100948
93309.4
88451.8
83824.3
82244.2
81575.3
101131
101795
103217
104975
107681
110846
112454
112327
107891
100874
93214.6
88377.6
83641.2
82197.2
81532.2
101108
101771
103182
105531
107536
110681
112445
112258
107776
99762.8
92935.9
86362.4
83648
82176.3
81501.6
101073
101719
103079
105272
108336
110460
113202
112838
107274
99467.3
90483.7
86182.7
83615.1
82142.3
81472.3
101050
101688
103019
105168
108206
111862
113162
112937
107278
96932
90240
86110.1
83580.6
82117.4
81447
101023
101654
102965
105056
107988
111625
115450
112833
105509
96404.3
90004.5
86035.1
83553.1
82094.6
81424.7
101001
101628
102930
105003
107907
111531
115397
112761
105436
96342.5
89974.5
86019.6
83537.6
82076.4
81405.3
100980
101605
102903
104969
107864
111488
115381
112738
105417
96322.1
89950.4
86003.7
83522.1
82059
81386.8
99181.9
99934.3
101559
104342
108768
115728
121379
126800
113167
91967.4
84551.4
80923.1
78809.9
77687.9
77210.6
99155
99908.7
101537
104330
108774
115738
121370
126778
113133
91954.5
84544.6
80905.3
78793.1
77672.2
77194.8
99120.6
99876.3
101511
104312
108789
115795
121375
126770
113104
91950.6
84538.6
80878.8
78776.5
77657.9
77180.4
99081.7
99846.1
101502
104369
109184
113620
121477
126892
113144
96526.1
84722.9
80825.9
78756.5
77642.8
77163.7
99032.5
99794.8
101460
104430
107950
113908
121812
124524
114625
97412.2
88117.7
80797.4
78671.1
77600.1
77135
98992.6
99751.7
101501
104003
108058
112973
120052
123530
114819
99906.9
88420.8
83275.6
78570.9
77531.3
77091.4
98942
99690.1
101468
104026
108190
113009
119149
123583
115446
101024
90223.5
83343.9
78448.1
77440.8
77033.7
98904.1
99639.2
101449
104063
107515
112477
119162
123576
115463
101078
90191.7
83312.1
80376.5
77352.4
76987.5
98881.5
99629.5
101408
104003
107473
112917
119108
123501
115355
100947
90066.7
83165.4
78310.9
77338.9
76944.3
98874.6
99632
101376
103865
108044
112894
118982
123389
115163
100685
89925.3
83079.3
78341
77350.8
76928.1
98856.2
99615.5
101276
104239
107763
113770
119716
124228
114431
99312.7
87943.6
80460.3
78398.1
77363.9
76915.1
98853.8
99617.8
101266
104119
108918
113399
121251
126632
112901
96435
84393.8
80515
78469.9
77375.4
76905.4
98841
99592.3
101222
104013
108475
115462
121054
126457
112845
91703.3
84254.1
80586
78486
77370.3
76894.5
98829.7
99580.6
101203
103985
108417
115364
120988
126436
112896
91804
84326.4
80638.8
78500.9
77366.9
76884.2
98813.8
99563.3
101182
103954
108367
115312
120968
126456
112986
91900.4
84356.6
80655.5
78501.5
77357.4
76870.7
95981.5
96710.8
98337.9
101297
106334
113244
129828
159847
117458
84428.1
74179.8
72890.1
72159.8
71924.5
71861.4
95946.6
96675.7
98303.3
101263
106308
113222
129794
159803
117236
84297.4
74117.4
72842.1
72136.2
71907.8
71846.1
95893.5
96616.2
98234
101171
106184
113189
129710
159737
117039
84211.7
74018.3
72782.1
72106.1
71888.7
71831.9
95827.1
96545.9
98157.9
100946
105555
113555
129728
159617
116792
84367.2
77523.5
72518.7
72054.8
71860.4
71813.7
95735.8
96429.4
97951.3
101001
105572
112666
126795
159545
117962
88583.4
77470.4
74832.1
71850.5
71797
71777
95644.9
96265.1
98399.3
101039
105300
112645
125409
154656
123289
91175.1
80033.2
74814.1
73604.9
71681
71721.9
95577.8
96191.1
98366.1
101010
105304
112202
125335
154708
123996
91809.4
81515.3
76440
73529.5
71637
71673.7
95516.6
96129.5
98392.1
101002
105274
112150
125277
154705
124243
91871.3
81470.7
76364.2
73487.9
71593.3
71607.4
95513.8
96126.5
98314.9
100987
105258
112107
125213
154594
124081
91467.7
81193.3
76201.2
73349
71520.7
71572
95521.1
96139.7
98284.6
100885
105207
112072
125163
154410
123232
90800.9
80836.6
76027.7
73301.6
71480.9
71540.8
95551.5
96242.6
97756.2
100809
105373
112471
125173
154321
122732
90305.9
79383.7
74361.5
71523.8
71529.8
71533.9
95588.3
96303.3
97910
100681
105180
113190
126482
159204
116877
88294.7
77049.2
72146.1
71732.3
71569.3
71535.5
95602.5
96321.8
97931
100857
105848
112841
129309
159247
116723
84012.6
73728.5
72473.4
71801.6
71586.4
71532.1
95608.9
96334.5
97953.7
100899
105920
112819
129288
159276
116924
84205.8
73955.9
72597.8
71847.1
71598.1
71528.3
95600.6
96326.3
97945.7
100890
105900
112767
129278
159293
117488
84594.6
74110.7
72669.8
71867.6
71596.9
71518.9
91670.8
92120
93118
94942.4
97930.5
104710
112216
109915
27988.7
54336.6
59360.7
62406.3
64337.1
65558.5
66117.2
91628.7
92075.4
93069.1
94884
97879.3
104656
112173
109823
25590.2
54041.9
59237.1
62359.6
64323.5
65548.3
66107.8
91558.5
91992.9
92975.9
94791.7
97742.2
104539
112073
109746
24278
53893.9
59181.9
62377.4
64332.1
65549.3
66108.4
91465.1
91869.6
92824.7
94483.2
99009.4
104121
111820
109628
24025.8
54159.6
60761.1
62554.1
64372.2
65556.5
66116.4
91337
91706.6
92572.9
95594
98740.1
104508
112576
109463
24853
58147.4
62721.5
64051.4
64492.1
65585.6
66119.6
91191.7
91536.2
93683.1
95451.1
99177.2
104714
112384
109189
27167.5
60426.3
64397.5
64342.4
65690.7
65643.9
66113.1
91117.7
91451.3
93625.1
95340.1
99391
104627
112266
109035
41917
62569.4
65047
65454.4
65670.6
65661.1
66107.7
91064.4
91386.1
93556.6
95940.1
99351.7
104562
112178
108846
34410.8
61755.6
64878.3
65925.4
65645.8
65643.2
66054.2
91051.5
91384.4
93523
95897.5
99315.1
104518
112117
108756
36287.6
60250.4
64246.1
65658.6
65485.6
65532.2
65995
91060.6
91402.7
93535.4
95245
99277.3
104500
112100
108786
28534.5
58871.7
63586.5
64823.8
65330.7
65413.7
65912.9
91142.7
91510.3
92368.8
95321.7
99014
104515
112140
108854
27102.1
58022.3
63002.2
63530.6
64123.5
65291.7
65855.1
91214
91614.7
92561.8
94209.4
98631.2
103498
111191
109071
25634.6
55702.5
60173.6
62120.8
64025.4
65243.8
65818.8
91254.4
91685.2
92659.9
94460.5
97391.5
103948
111476
109076
24008.7
53679.7
58917.3
62078.8
64014.2
65231
65792.5
91276.9
91720.3
92706.2
94506
97476.8
104184
111591
109053
24431.1
54083.4
59154.6
62130.1
64034.4
65230.4
65778.4
91275.6
91721.4
92711.6
94521.2
97485.3
104210
111593
108962
28721.8
55067.4
59457.8
62242.2
64063
65229.9
65767.4
86517.2
86443.6
86273.9
86015.8
86041.9
90168.7
94003.9
107201
7925.35
32762.5
45539.3
52440.8
56964.5
59612.1
60801.5
86473.6
86397
86224.1
85960.6
86002
90108.5
93948.8
107010
3072.26
32689.9
45460.8
52444.4
56973.6
59614.9
60802.8
86403.3
86318.5
86142.3
85919.5
85936
89987.1
93833.2
106918
5301.72
32750.4
45574.1
52555
57037.8
59654.9
60830.4
86313.9
86200.7
86021.8
85933.3
88678.4
89903.3
93601
106790
2379.25
33243.5
46023.7
52961
57193.2
59739.8
60887.5
86201.6
86068.1
85936.7
87902.5
88667.8
91709.6
94641.6
106794
2394.84
34148.4
47188.2
53945.9
57450.9
59880.9
60965.1
86080.4
86010.6
87497.1
87781.8
89868.7
92472
94507.7
106439
21984.6
37172.5
48411.5
54227
58225.4
60008.7
61037.4
86023.5
85963.2
87361.9
87713.5
90471.6
92365.5
94416.7
106362
44353.5
39607
49044.9
54773.9
58257.2
60033
61050.3
85973.8
85905.7
87278.9
88659.1
90398.8
92297.3
94351.5
106260
3358.39
37394.2
48686.9
54919
58176.9
60004.9
61002.9
85952.3
85890.9
87242.6
88615.7
90361.1
92253.3
94300.7
106232
2181.53
34784.9
47874.4
54624.1
58030.6
59888.4
60930.6
85939.7
85868.2
87254.3
87626.4
90347.7
92241.5
94275.4
106208
3862.73
33621.2
47202.2
54066.3
57883.9
59749.5
60815.9
85994.8
85858.7
85721.7
87607.2
89717.5
92292.4
94292.7
106206
2268.75
33026.1
46715.7
53362.3
57041.3
59559.2
60680.2
86047.8
85932
85747.8
85652.8
88439.4
89742.9
93441.6
106501
2447.16
32669
45751.2
52512
56820
59404.5
60569.7
86083.5
85996
85815.3
85587.9
85598.8
89600.6
93328.9
106393
2333.92
32673.8
45326.1
52249.9
56702.2
59316.3
60492.5
86105.6
86027
85850.9
85583.2
85621.9
89670
93442.6
106434
2711.88
32905.4
45349.3
52205.1
56667.4
59275.6
60450.6
86105.7
86030.4
85857.7
85595.6
85620.7
89722.1
93486
106412
4690.73
33354.4
45620.9
52314
56688.4
59267.2
60431.3
81217.4
80560
79194.7
77023.1
76712.2
75690.9
78289.3
2297.56
24652.5
38160.1
46321.4
51978.3
55372.2
56951.1
81176.6
80516.6
79148.7
76974.8
76652.7
75621.2
78213.6
2295.5
24691.7
38154.6
46361.6
51997
55382.6
56958.4
81118.2
80457.5
79079.4
76916.3
76630.9
75553.3
78082.3
2296.02
24670.2
38353.5
46468.7
52069.3
55438.5
56998.2
81058.1
80391.8
79004.4
77015.6
76874.3
75418.4
77872
2302.65
24851.9
37508.4
46842
52231.7
55547.6
57073.7
81000.4
80334.7
79081.1
79026.5
77401.7
77482.9
78530.4
2343.69
23147
37406.7
46669
52462.2
55709.5
57172.1
80943.7
80401.9
80508.3
79263.4
78731.3
78443.4
78486.2
2302.66
23935.4
37651.3
46866.9
52439.4
55776.3
57268.1
80910.1
80388.4
80424.8
79300.9
79489.5
78468.3
78497.1
2313.58
24690.2
37987
46784.9
52505.3
55769
57267.6
80861.6
80344.1
80360.5
80150.4
79540.5
78453.1
78488.6
7187.38
24501.2
37807.9
46661.7
52433.1
55736.2
57220.2
80831.5
80307.6
80316.8
80121.4
79494.4
78396.8
78427
2319.62
23360.5
37328.6
46444.3
52322
55637.2
57150
80790.3
80247
80317.6
79176
79359.9
78318.6
78341.6
2300.29
22723
36900.2
46277.3
52187.5
55530.2
57040.3
80776.6
80106.4
78846.5
78790.4
78490.3
78228.4
78274.1
2293.84
22401.9
36591
46234.4
52089.2
55384
56879.1
80772.6
80103.5
78710.8
76722.4
76641.1
75299.5
77351.8
2300.21
23227.9
37281.9
46439.6
51857.5
55198.3
56735.7
80778.3
80115.9
78736.7
76580
76294.1
75198.7
77666.5
2301.92
24636.8
38121.1
46144.9
51704
55067.9
56627.4
80788.5
80128.1
78762.3
76599.1
76312.2
75268.3
77815.7
2296.45
24730.1
37983.8
46047.5
51628.5
54993.5
56561.4
80786
80128.9
78767.1
76608.2
76282.1
75311.1
77908.8
2312.2
24380.7
38076.6
46072.6
51618.5
54971.2
56531.5
76685
75482.8
72961.2
68560.8
66289.2
58789.8
54657
3286
2292.64
23722.8
35932.9
44375.1
50149.5
53653.2
55330
76642.1
75435.4
72904
68486.2
66206.4
58664.7
54454.8
3160.74
2296.43
23228.4
35925.8
44387.6
50151.8
53657.3
55331.7
76582.2
75372.9
72811.4
68345
66094.8
58486.5
54250.9
3070.39
2292.93
19951.6
36132.3
44451.8
50198.8
53696.1
55357.9
76526.1
75317.7
72683
68243.3
65967.3
58276.1
54128.3
2371.33
2298.67
20449.1
33737.1
44605.8
50287.2
53769.4
55409.2
76485.9
75260.9
72582.9
71170.3
65695.6
61119.1
55976.5
2267.36
2299
18520.4
32643.7
43094.4
50387.1
53897.3
55472.3
76449.8
75238.9
74482
71002.3
67625.6
62453.7
56097.1
2286.8
2297.01
18644.6
32198.8
43145.3
49419
53925.4
55556.8
76407.1
75189.9
74420
70850.1
68462.4
62528.1
56334.3
2436.73
2289.83
18700.4
32285.3
42404.2
49440.4
53892.7
55530.5
76351.2
75139.8
74348.2
72173.7
68427.5
62549.9
56480.3
4409.14
2281.86
18597.1
32207.9
41999.5
49393
53853.9
55485.7
76318.8
75096.9
74306.3
72138.9
68361.5
62444.6
56313.8
4327.92
2283.57
18514.3
32067.2
41884.6
49315.2
53771.4
55419.4
76279
75062.5
74305.9
70725.8
68311.8
62301.7
56080.8
2041.5
2293.86
18586.5
31914.4
42124.9
49215.7
53692.1
55328.8
76239.1
75006.7
72313.1
70875.5
67405.6
62197.4
55859
2877.41
2292.8
18325.8
31760.3
42744.4
50037.3
53571.9
55175.2
76214.3
75000.6
72355
67911.8
65562.9
57964.8
53897.7
2266.77
2298.65
19190.3
33447.4
44197.9
49890.9
53396.7
55044
76215.1
75002.6
72437.2
67977.8
65661.1
58117.8
53960.2
3102.98
2294.86
20452
35762.9
44038.3
49764.8
53271.4
54938
76227
75019.1
72489.1
68089
65808
58311.5
54152.2
2591.51
2296.81
23741.9
35484.6
43916.9
49667
53183.7
54863.1
76226.8
75024.8
72507.6
68130.5
65866.4
58460.9
54400.2
2591.85
2286.01
24098.6
35413.5
43806.3
49618.6
53143.5
54823.3
73756.6
72129.7
68677.5
62580.3
52074.8
42501.9
17849.4
2313.17
2301.93
25640.9
37567.6
45765.6
51255.4
54560.5
56138
73703
72068.2
68592.2
62462.8
51911.5
42277.7
17877.6
2259.51
2302
25105.7
37594.5
45735.8
51233.6
54549.3
56127.7
73623
71980.9
68464.1
62300.6
51660.3
41789.1
17703
2245.5
2300.42
20570.5
37501.5
45754.3
51236.2
54554.1
56129.4
73536.9
71900.5
68295.9
62107.6
56047.3
41337.4
17689.5
2260.29
2297.26
20523.6
33763.8
45731.2
51230.5
54563.6
56141.3
73467.9
71828.2
68197.9
64670.5
55940.7
45103.2
24080.4
2266.97
2296.16
17738.5
32039.5
43104.6
51224.4
54617.4
56155.9
73411.9
71754.1
69841.3
64579.4
58140
47015
24973.4
2272.71
2255.67
17719.5
31137.3
43004.9
49403.7
54619.8
56200.8
73346
71672
69818.2
64461.2
59112.1
47259.4
25810.3
2277.56
2270.63
17497.4
31054.5
41686.5
49356.6
54570.9
56155.6
73279.9
71608
69750.2
65803.1
59016.5
47309.5
26425.4
2567.35
2251.81
17239.2
30938.8
41011.6
49294.7
54523
56112.7
73245.3
71562.4
69698.8
65743
58912.6
47065.3
25634.7
2358.19
2299.46
17430.5
30903.2
40940
49241.1
54452.2
56046.5
73219.4
71548.4
69678.8
64283.9
58869.5
46823.1
25084.4
2300.66
2332.27
17697.7
30898.4
41502.1
49184.3
54387.5
55973
73191.6
71538.2
67870.7
64398.6
57820.4
46659.7
24664.2
2281.06
2305.1
17545
30868.6
42696
50855.5
54283
55842.7
73191.6
71542.8
67910.3
61691.3
55645.6
41042.5
19144.9
2252.77
2270.31
18611.3
33407.1
45241.6
50779.9
54145.4
55736.5
73220.8
71568.6
68033.4
61850.6
51218.2
41287.6
17476.2
2227.85
2302
20618
36911.8
45186.9
50701.5
54052.2
55645.9
73252.4
71610.6
68122.8
61992.2
51475.3
41741.2
17630.1
2224.94
2301.18
25189.1
36654.8
45047.4
50602.8
53967.1
55571.5
73263.1
71631
68170.6
62081.9
51626.1
42046.3
17911.1
2240.6
2295.07
26148.6
36040.6
44887.4
50535
53913
55525.1
73086.5
71387.2
67747.2
61518.6
50518.5
39318.3
5114.17
2299.65
2315.56
31320.4
42744.1
50239.5
55011.3
57801.3
59123.1
73018.2
71307.5
67630.3
61314.3
50368
38670.2
4926.53
2248.04
2961.54
31723.9
42842.4
50175.5
54969.3
57774.8
59100.7
72914.6
71191
67458
61030.7
50576.2
37108.3
6789.36
2259.76
2303.36
24403.5
42739.3
50173.9
54921.1
57751.2
59081.7
72798.5
71079.1
67290.9
60828.4
52684.8
36061.5
8523.81
2285.17
2298.19
24197.5
37843.2
50072.9
54851.9
57719.2
59065.4
72704.1
70999.6
67239.9
62269.3
52324.6
38582.7
17085.6
2280.8
2297.65
20141.6
35374.6
46626.1
54828.2
57726.3
59050.1
72632.6
70937.3
68080.5
62097
53762.5
39764.2
17315
2277.37
2296.77
19999.7
34017.8
46414.5
52359.9
57740.3
59075.2
72548.5
70836.3
68018.2
61968.1
54397.6
39927.3
19145
5967.01
2298.07
19739.8
33793.5
44590.9
52258.4
57685.6
59023.4
72476.5
70758.3
67952.6
62870.8
54259.8
39958.7
18210.6
2261.14
2286.55
19307.2
33561.4
43635.3
52184.1
57635.7
58985.1
72435.2
70709.7
67896.1
62792.7
54128.3
39660.7
17423.5
2271.56
2268.72
19180.1
33453.9
43548.3
52131.8
57567.8
58916.8
72418.2
70699
67847.2
61746.1
54076.1
39340.4
16925.3
2298.71
2301.76
19611.8
33516.2
44377.5
52095.4
57504.7
58851.5
72397.2
70667.7
66839.2
61861.1
53333.9
39281.2
16943.6
2299.22
2291.74
19623.1
33634.2
46089.2
54422.8
57378.6
58723.8
72418.4
70673.4
66826.7
60280.1
51970.5
35876.2
16514.2
2249.32
2293.75
21149.7
37203.6
49476.8
54342
57261.7
58633.1
72475
70728
66946.1
60445.4
49928.4
35840.1
7035.44
2266.99
2305.55
23913.8
41902.8
49458.5
54295.3
57191.8
58555.5
72529.3
70799.3
67082.2
60716.5
49797.9
38035.5
4453.62
2241.86
3565.27
30623.1
41532.3
49329.8
54215.2
57116.7
58487.2
72554.4
70838
67163.4
60882.7
50024.3
38296.9
4576.82
2243.49
2300.32
29631.1
40720.3
49219.5
54139.6
57060.7
58440.9
74916.5
73620.9
70849.8
66467.5
56910.2
47388.8
4323.43
2314.23
26266.6
47588.6
52747.8
58032.7
61162.5
62985.8
63867.2
74834.1
73519.4
70698.8
66141.5
56494.7
46594.5
2542.99
2320.4
27742.9
47654.8
52705.5
57918.9
61101.3
62947.6
63837
74709.2
73369.8
70485.1
65599
58162.7
43545.2
12346.3
2386.9
5906.89
36279.2
52714.5
57781.4
60995.9
62906.7
63806.2
74567.2
73201.4
70210.9
65201.2
57105.3
41849.3
13521.8
2310.23
2303.35
34276.3
46775.7
57632.7
60872.1
62861.1
63782.2
74447.9
73070.3
70080.4
64949.1
56095.2
41802.8
18852.7
2298.46
2303.24
27337.4
43507.1
53691
60898.9
62867.1
63770
74355.5
72996.2
69874.4
64491.9
56037.9
41659.1
18104
2301.5
2306.27
26759.3
41526
53455.4
58073.1
62951.6
63821.4
74252.1
72869.5
69675.1
64242
55970.4
41241.2
17524.9
2294.62
2427.36
26406.6
41080.5
51233.5
57955.7
62922.2
63782.8
74175.8
72779.8
69572.6
64396.9
55702.4
41259.1
20624.6
2419.94
2313.17
25788.9
40634.8
50022.6
57907.3
62890.7
63758.3
74132.3
72731.3
69515.4
64306.7
55555.7
41023.3
19711.1
2292.13
2472.9
24936.8
40343.2
49889.8
57842.9
62814.5
63684.4
74127.9
72734.1
69491.5
63994.1
55568.3
40703.3
17443.5
2297.41
4353.05
25574.4
40476.8
50933.9
57776.1
62731.8
63618
74122.7
72706.5
69611.7
64196.5
55477.2
40964.3
17602
2306.44
2301.68
25953.1
40854.1
53055.8
60487.5
62525.7
63453.2
74166.2
72759
69674.2
64500.2
55716
40477.7
17398.4
2286.3
2302.84
28608.3
45635.7
56939
60327.8
62396.8
63354.1
74246.1
72866.9
69892.9
64838.5
57167.1
41666.8
12348.6
2354.85
8302.37
33937.6
51573.7
56946.1
60320.4
62332.9
63277.1
74320.5
72971.2
70075.4
65370.8
55728.2
45455.9
2472.04
2318.77
25260.3
45402.5
51215.7
56930.9
60275.2
62267.1
63214
74358.9
73030.7
70191.8
65642.4
56214.6
45977.1
4980.9
2316.29
11688
42786.7
50295.1
56810
60189.1
62214.7
63170.1
78789.3
78261.8
77169.8
76704.8
74390.6
81939.8
114909
92551.9
82823.3
72663.9
67878.5
68752.3
69065.4
69502.2
69779.5
78697.9
78135.4
76981.9
76215.1
73608.3
79910.2
111725
76347.9
78413
71147.4
67422.5
68495.1
68969.8
69451.9
69745.1
78557.4
77942.8
76712.4
74887.3
73302.9
65398.7
64789.5
46084.6
47841.3
59241.9
66826.8
67958.9
68796.4
69394.5
69707.9
78394.9
77720.8
76292.9
74208.2
68182.3
59945.1
39840.3
3498.34
25588
55880.6
61368.3
67602.1
68627.2
69349.8
69686.5
78259.2
77541.3
76070.6
71982.4
66947.8
56178.2
32337.8
4109.12
11523.2
45031.7
57529.1
64055.9
68662.2
69381
69696.7
78161.3
77450.7
74656.7
71390.4
65136.6
53822.2
29646.8
2283.02
9926.64
42736.2
55014.5
63952.2
66051.8
69462.5
69779.6
78050.6
77316.4
74352.2
71083.8
64158.6
52405.5
27370.1
2303.23
9933.15
41521.6
54381.5
61613.5
66067.1
69477.6
69772.7
77976.8
77227
74219.6
70293
63661.4
51582.2
26381.3
3078.59
12261.8
39517.6
53737.2
60270.2
66110.1
69488.3
69777
77936.2
77179.8
74162.1
70192.3
63471.7
51337.5
26457.4
2315.54
2359.46
36907
53199.5
60117.2
66043.9
69402.2
69695
77943.3
77192.2
74174.1
70791.3
63596.6
51509.4
26674.6
2326.95
3489.51
38779.4
53367.8
61274.2
65898.8
69299.5
69626
77945.8
77178.1
75573.3
70955.2
64350.6
52369.2
27353.1
2293.06
13194.7
41223.1
54021.1
63494.6
68329.9
69093.8
69427.2
78007.7
77282
75731.3
73427.6
66196
56615.3
30584.3
2286.01
11500.5
46194.2
59728.4
66971.1
68130.1
68938.5
69309.3
78106.3
77439.5
76088.5
74013.4
71964.6
59963.5
43842.9
17729.4
37942.4
55281.1
65603.1
67124.5
68161.2
68869.6
69226.9
78194.6
77583.2
76330.8
75280.5
72427.5
78031.4
106191
74731.9
75192
69383.5
66125.6
67530.6
68192.2
68821.7
69169.3
78240.2
77662.9
76480
75686.6
73243.4
79509.4
108625
87163.7
79377.3
70771.8
66042.1
67580.1
68140.9
68781.4
69128.3
83623.3
83897.5
84344.9
87045.9
90764
95797.8
122003
121095
108978
90228.7
82312.1
79341.7
77145.7
76345
76031.3
83546.5
83783.8
84234.4
86808.1
90667.5
96381.5
126812
135168
109453
89933.6
82036.4
79120.7
77069.2
76297
76001.8
83419.8
83565.8
84048.4
85339.4
89321.9
91932.1
114552
139595
110784
87858
81102
78456
76912.3
76232.6
75968
83268.9
83348.5
83617.3
84564.9
83722
88925.2
107075
141920
106038
85645.1
78636.3
77904.1
76758.1
76192.1
75953.2
83143.9
83171.5
83292.5
81584.9
82165
81745.9
83318.4
104636
85758
77905.8
76028.3
75835.6
76714.4
76218.7
75971.4
83064
83006.9
81338.6
81016.4
79323.1
77697.8
75845.6
55623.9
66516.7
74231.9
74095.7
75759.1
75051
76212.4
76037.2
82968.9
82883.1
81113.7
80644.9
77583.2
75652.6
68057.3
8762.25
57454
72205.1
73666.7
74496.1
75201.8
76241.6
76058
82913
82819.7
81002.5
79225.4
77059.9
74059.5
62211.3
4006.99
84928.7
71389.3
73626.4
73787.2
75250.3
76289.5
76089.7
82881.7
82782.4
80957.4
79126.9
76821.6
73579.2
62847
16204.5
2443.88
68931.5
73513
73777.6
75245.9
76225.3
76028.1
82894.9
82810.6
80970.2
80368.9
76881.9
73942.5
64546.9
58386.3
17805.7
68697.6
73289.7
74472.6
75157.1
76141.7
75949.1
82892.3
82881.4
82915.8
80668.6
78374.4
75254.1
67321.8
2213.34
46854.7
71397.8
73470.1
75579.9
76564.1
76054.3
75797.7
82950
82989.2
83157.7
83940.4
81778.6
84477.4
84798.6
70708.1
75536.3
78243.1
77434.3
77551.3
76438.7
75901.8
75675.5
83036.6
83136
83516.3
84600.4
88173.9
89408.8
110938
143809
107686
85572.3
80277.9
77849
76442.9
75827.6
75587.9
83110.3
83296.6
83679.4
85973.8
89449.2
95329.3
123412
129522
106842
88954.2
81124.4
78406.9
76480.7
75794.2
75531.4
83140.3
83359.8
83754.3
86151.3
89707.6
94724.9
120440
121382
106317
89380.8
81179.4
78514.8
76444.9
75761.3
75489.2
88123.1
88794.7
89753.8
92345
96815.9
96326.9
103680
108353
103955
94682.8
90137.6
86502
83643.3
82350.7
81707
88103.9
88769
89842.4
92683.9
97581.5
98441.7
107286
114612
105318
95902.8
90560.8
86596.2
83688.2
82347.2
81704.6
88059.2
88641.6
89971.7
92396.1
97048.6
100097
108116
120417
106629
97585.1
90329.3
86400.1
83705.4
82332.6
81708.2
87984.1
88538.2
89813.5
92522.1
94247.3
102066
115450
131029
116858
99253.2
90469.7
86317.7
83738.4
82344
81729.9
87901.5
88408.5
89590.4
90177
94097.3
100568
116986
153987
126333
101515
90479.5
85683.3
83778.7
82404.4
81776.1
87826.5
88182.6
88084.8
89758
92124.5
99057.4
119342
166574
129102
101999
90738.1
86080.3
83166.9
82399.5
81850.2
87766.2
88083.8
87999.5
89551
91068.2
98807.2
120189
179035
133176
103447
91720.7
86237
83485.1
82524.8
81919.1
87743.2
88055.4
87932
88485.7
90829.2
98259.3
118586
185149
144050
107604
93198.9
86557
83749.7
82626.1
81989.8
87728
88045.8
87921.5
88437.1
90706.9
97837.3
116843
190017
150932
114845
94199.3
86769.8
83773
82583.9
81941.9
87746
88102.4
87934.3
89446.7
90738.9
97788.4
115999
184228
148540
110037
93260.8
86604.3
83531.2
82452.7
81849.6
87762.6
88263.8
89425.6
89794.6
91815.1
98199.4
118455
189161
138493
104624
91708
86200.7
83857.6
82381.8
81712.5
87790.9
88341.2
89607.4
92307.1
93894.5
102585
118183
156899
130336
102052
90875.8
86339.1
83656.6
82216.4
81578.9
87802.7
88366.7
89670.9
92051.7
96775.5
100944
111700
129293
111273
98923.9
90250.5
86176.2
83479.1
82089.1
81460.9
87795.8
88427.4
89506
92260.6
96844.6
98099.8
105917
112953
104239
95538.2
90063.3
86206.8
83340.4
82010.2
81374.6
87768
88400
89378.9
91855.2
96231.5
96248.4
103198
108016
101460
94291.4
89431
86000.2
83199.2
81939.5
81310.2
91527.1
92161.4
92978.3
94099.5
97379
96610.8
98330.1
102142
97904
94689.3
92792.7
90180.4
88008.3
86883.4
86221.1
91578.3
92236.4
93173.1
94680.8
98185.1
98073
100018
102109