/*--------------------------------*- C++ -*----------------------------------*\
| =========                 |                                                 |
| \\      /  F ield         | OpenFOAM: The Open Source CFD Toolbox           |
|  \\    /   O peration     | Version:  v2012                                 |
|   \\  /    A nd           | Website:  www.openfoam.com                      |
|    \\/     M anipulation  |                                                 |
\*---------------------------------------------------------------------------*/
FoamFile
{
    version     2.0;
    format      ascii;
    class       volScalarField;
    location    "0.036";
    object      p_rgh;
}
// * * * * * * * * * * * * * * * * * * * * * * * * * * * * * * * * * * * * * //

dimensions      [1 -1 -2 0 0 0 0];


internalField   nonuniform List<scalar> 
449343
(
103839
103976
104205
104427
104527
104282
103502
102111
100161
97862.9
95510.3
93379.8
91665
90477.3
89872.3
103841
103978
104208
104430
104530
104285
103505
102115
100167
97870.5
95519.1
93388.2
91672.1
90483.1
89877.4
103845
103983
104213
104436
104536
104289
103508
102119
100175
97883.9
95535.5
93404.2
91685.5
90493.9
89886.7
103850
103988
104220
104444
104543
104292
103511
102122
100184
97899.6
95557
93425.5
91703.2
90507.8
89898.5
103854
103994
104227
104450
104549
104292
103509
102123
100192
97915.7
95580.3
93448.8
91722.1
90522.2
89910.2
103857
103998
104231
104454
104554
104292
103508
102124
100199
97931.6
95602
93470.1
91738.4
90533.8
89919.2
103857
103998
104232
104455
104554
104291
103506
102123
100203
97941.9
95614.2
93483.5
91747.7
90539.2
89922.7
103853
103994
104228
104451
104549
104284
103494
102109
100191
97938.4
95613.7
93483
91745.8
90536
89918.9
103845
103985
104219
104441
104539
104275
103490
102105
100186
97925.4
95598.2
93467.6
91732.2
90523.9
89907.7
103833
103973
104205
104427
104526
104263
103478
102093
100168
97899.9
95570.6
93439.4
91708.6
90504.9
89890.8
103819
103958
104190
104412
104509
104252
103468
102080
100149
97873.2
95538.5
93407.9
91682
90483
89871.5
103805
103943
104174
104396
104494
104242
103461
102072
100134
97850.8
95509
93378.3
91656.7
90461.9
89852.9
103794
103931
104160
104382
104481
104234
103453
102065
100123
97832.5
95485.1
93354.3
91635.8
90444.4
89837.2
103785
103922
104150
104372
104471
104227
103448
102059
100113
97819
95468.6
93337.9
91621.6
90432.1
89826.1
103781
103917
104144
104366
104466
104223
103444
102055
100108
97812
95460.4
93329.9
91614.4
90425.9
89820.4
103685
103870
104199
104576
104857
104837
104193
102739
100534
97895.4
95242.6
92912.2
91086.7
89845.1
89219.1
103687
103872
104203
104581
104862
104841
104196
102742
100541
97905.8
95254.3
92922.5
91094.7
89851.3
89224.4
103691
103877
104210
104589
104871
104846
104200
102749
100554
97926
95277.6
92942.7
91109.9
89862.8
89234
103696
103884
104219
104600
104881
104850
104199
102746
100563
97949.2
95309.5
92970.8
91130.4
89877.6
89246
103701
103891
104229
104612
104892
104844
104194
102744
100558
97973.8
95347.2
93003.3
91153
89893.1
89258
103705
103896
104237
104623
104902
104847
104189
102745
100573
97999.1
95383.8
93034.6
91173.4
89905.5
89267
103705
103898
104241
104628
104902
104851
104190
102745
100581
98021.5
95419.1
93058.7
91185.5
89911.6
89270.2
103700
103894
104238
104625
104898
104844
104173
102683
100562
98015.4
95420.3
93059.3
91183.2
89907.9
89265.6
103691
103884
104227
104613
104885
104834
104171
102727
100562
98002.7
95401.2
93040.4
91168.5
89894.5
89253.4
103679
103870
104210
104595
104872
104815
104155
102709
100537
97962
95346.9
92999.1
91138.6
89873
89235.5
103664
103853
104190
104572
104849
104800
104148
102696
100508
97924.8
95299.7
92957.1
91108.2
89849.8
89215.7
103650
103837
104171
104551
104829
104796
104144
102691
100508
97895.7
95256.9
92919.2
91079.8
89828
89196.9
103638
103823
104154
104533
104812
104787
104141
102691
100498
97871.7
95224.3
92889.8
91057.1
89810.3
89181.5
103629
103813
104143
104520
104799
104779
104135
102685
100488
97854.3
95203.8
92871.4
91042.7
89798.3
89170.9
103624
103808
104137
104513
104793
104774
104132
102682
100482
97846.1
95194.6
92863
91035.6
89792.4
89165.5
103292
103586
104145
104887
105639
106188
105953
104337
101454
97921.4
94532.8
91749.8
89685
88329.9
87660.6
103294
103589
104150
104894
105648
106195
105956
104342
101464
97938.6
94550.8
91763.8
89694.6
88336.8
87666.2
103298
103595
104160
104909
105666
106208
105959
104355
101486
97977.6
94591.2
91793
89713.5
88349.6
87676.3
103303
103603
104174
104930
105690
106216
105944
104358
101480
98022.3
94654.1
91837.6
89739.9
88366.3
87688.9
103309
103613
104191
104954
105713
106199
105885
104290
101440
98090.3
94728.4
91890
89770.2
88383.5
87701
103313
103622
104209
104978
105745
106194
105867
104302
101473
98152.1
94815.5
91944.9
89797.4
88397.3
87709.3
103314
103625
104217
104996
105742
106209
105863
104299
101486
98189.5
94953.1
91993
89817.7
88403.7
87711.2
103309
103623
104215
104997
105747
106217
105882
104286
101468
98182.7
94947.9
91992.7
89814.2
88398.6
87704.8
103299
103610
104200
104979
105723
106188
105839
104274
101458
98163.3
94928.7
91966.7
89793.4
88381.5
87690.2
103285
103593
104179
104947
105712
106156
105823
104252
101422
98101.4
94764.9
91897.7
89752.9
88356.5
87670.6
103269
103572
104148
104908
105662
106145
105827
104230
101378
98025.3
94665.2
91830.3
89714.2
88330.9
87650.3
103254
103553
104121
104874
105631
106151
105879
104292
101413
97956
94589.7
91775.9
89679.8
88308.2
87632
103241
103537
104099
104846
105600
106139
105891
104289
101421
97915.8
94530.3
91732.8
89654.2
88290.7
87617.6
103232
103526
104084
104827
105578
106123
105889
104281
101411
97888.9
94502.3
91711.8
89639.4
88279.6
87608.2
103227
103520
104077
104818
105568
106115
105886
104278
101405
97877.9
94490
91702.4
89632.7
88274.4
87603.6
102532
102985
103889
105218
106837
108456
109392
107463
103087
97681.4
93046.8
89637.4
87291.5
85823.7
85120
102533
102987
103894
105228
106851
108470
109389
107471
103098
97707.6
93072.4
89654.5
87302.1
85830.8
85125.6
102535
102993
103907
105252
106885
108501
109401
107510
103165
97792.7
93138.3
89692.5
87323.4
85844.2
85135.6
102538
103001
103928
105293
106935
108558
109251
107545
103105
97947.6
93264.7
89754.6
87353.7
85861.3
85147.5
102541
103011
103954
105334
106997
108519
108503
107265
103920
98169.3
93424.7
89840.1
87388.2
85877.3
85157.5
102545
103023
103991
105419
107101
107739
108391
107266
104012
99447.7
93623.6
89929.9
87421.2
85886.9
85161.9
102544
103030
104010
105451
106438
107785
108372
107246
104013
99510
94926
89988
87436.9
85889.6
85159.3
102538
103029
104015
105457
106438
107807
108398
107153
104011
99519.2
94906
89982
87437.7
85883.9
85148.2
102526
103011
103990
105429
106418
107777
108354
107207
103987
99485.5
94882.8
89943.7
87398
85858.3
85131.4
102514
102992
103957
105383
107060
107710
108326
107195
103942
99420.4
93539.7
89857.4
87358.2
85832.3
85112
102496
102965
103904
105280
106938
108447
108421
107191
103895
98074.5
93329.4
89753.4
87312.1
85809.7
85094.2
102483
102944
103868
105229
106867
108475
109171
107463
103022
97864.9
93180.6
89674.6
87278.3
85790.4
85079.3
102471
102927
103838
105178
106808
108414
109314
107428
103083
97718.8
93067.2
89623.4
87255
85776.6
85068.5
102463
102916
103820
105150
106772
108380
109310
107406
103053
97669.6
93033.8
89604.3
87244.3
85769.2
85062.3
102459
102910
103812
105138
106756
108366
109312
107405
103050
97657.9
93020.7
89597.3
87240.5
85766.3
85059.7
101199
101826
103129
105201
108101
111730
115626
112927
105554
96420
90076.2
86165.9
83705.2
82253.9
81587.1
101198
101826
103133
105213
108121
111757
115624
112938
105583
96461.8
90106.9
86181.6
83713.9
82260
81591.9
101194
101827
103144
105242
108182
111834
115659
112980
105692
96579.3
90188
86217.3
83731.8
82271.2
81600.2
101190
101830
103166
105323
108368
112035
113351
113110
107341
97128.8
90435.7
86294.7
83757
82284.2
81608.6
101184
101832
103196
105395
108469
110531
113354
113097
107512
99502.2
90699.9
86379
83782
82290.5
81611.7
101181
101845
103260
105613
107610
110744
113412
113032
107547
99827.9
92979.7
86522.6
83782.9
82290.8
81606.4
101170
101836
103259
105014
107684
110856
112484
112375
107930
100882
93231.2
88397.3
83729.2
82262.4
81589.5
101166
101840
103319
105017
107726
110892
112512
112365
107971
100941
93304.5
88446.9
83824.3
82244.2
81575.3
101150
101815
103237
104990
107696
110861
112466
112339
107903
100887
93229.3
88392.3
83660.8
82216.8
81551.8
101147
101810
103222
105570
107570
110716
112477
112290
107808
99797.1
92970.3
86401.6
83687.2
82215.6
81540.9
101132
101778
103138
105331
108395
110514
113256
112892
107328
99521.3
90542.5
86241.6
83674
82201.1
81531.2
101129
101766
103097
105246
108284
111940
113235
113010
107352
97010.5
90318.4
86188.5
83659.1
82195.9
81525.5
101121
101752
103063
105154
108086
111723
115548
112927
105607
96502.4
90102.6
86133.2
83651.2
82192.7
81522.8
101119
101745
103048
105121
108025
111649
115515
112874
105554
96460.3
90092.2
86137.4
83655.3
82194.2
81523.1
101117
101742
103040
105106
108002
111626
115518
112870
105555
96459.4
90087.7
86141
83659.4
82196.3
81524.1
99044.5
99796.9
101422
104205
108631
115590
121237
126658
113025
91830
84414.1
80785.8
78672.6
77550.6
77073.2
99037.3
99791
101420
104212
108656
115620
121247
126655
113011
91836.8
84426.9
80787.6
78675.3
77554.5
77077
99022.5
99778.2
101413
104214
108691
115697
121272
126667
113001
91852.5
84440.5
80780.7
78678.4
77559.8
77082.3
99003.2
99767.6
101424
104290
109106
113536
121394
126808
113060
96442.7
84644.4
80747.4
78678
77564.3
77085.2
98973.6
99735.9
101402
104372
107886
113845
121749
124457
114558
97348.5
88053.9
80738.5
78612.2
77541.2
77076.2
98953.4
99712.5
101462
103958
108014
112927
120005
123482
114773
99860.3
88376.7
83231.5
78531.7
77492.1
77052.1
98922.4
99670.5
101449
104002
108166
112982
119121
123555
115418
100996
90196.6
83319.4
78428.4
77421.2
77014.1
98904.1
99639.2
101444
104058
107508
112469
119153
123567
115454
101069
90184.3
83307.2
80371.6
77352.4
76987.5
98901.1
99649.1
101427
104018
107485
112930
119119
123513
115366
100958
90079
83180.1
78330.5
77358.5
76963.9
98913.9
99671.3
101416
103899
108079
112926
119013
123419
115193
100716
89957.2
83113.6
78380.2
77390
76967.3
98915.1
99674.4
101335
104298
107817
113824
119767
124280
114482
99364.2
87997.6
80519.2
78456.9
77422.8
76973.9
98932.2
99696.3
101344
104197
108997
113473
121325
126706
112974
96508.5
84472.3
80593.5
78548.3
77453.9
76983.8
98939.1
99690.4
101320
104112
108573
115560
121148
126550
112938
91801.4
84352.2
80684.1
78584.1
77468.4
76992.6
98947.4
99698.4
101321
104103
108535
115482
121101
126549
113009
91921.8
84444.1
80756.5
78618.6
77484.6
77002
98951.2
99700.6
101319
104091
108504
115449
121100
126589
113119
92037.7
84494
80792.9
78638.8
77494.7
77008.1
95844.2
96573.4
98200.5
101160
106197
113102
129686
159702
117314
84285.8
74042.4
72752.7
72022.4
71787.1
71724
95828.9
96558
98185.6
101145
106191
113099
129671
159678
117111
84174.8
73999.7
72724.4
72018.5
71790.1
71728.4
95795.4
96518.1
98135.9
101073
106086
113086
129607
159631
116934
84108.7
73920.2
72684
72008
71790.6
71733.8
95748.7
96467.4
98079.4
100868
105472
113471
129644
159532
116706
84283.8
77440.1
72440.2
71976.3
71782
71735.2
95677
96370.5
97892.4
100938
105508
112600
126729
159479
117896
88517.1
77406.6
74768.3
71791.6
71738.2
71718.1
95605.7
96225.9
98355.1
100995
105254
112598
125362
154608
123241
91127.3
79986.6
74770
73560.8
71641.8
71682.7
95558.2
96171.4
98341.6
100986
105277
112174
125306
154680
123968
91781.2
81487.1
76413.1
73504.9
71617.4
71654.1
95516.6
96129.5
98387.2
100997
105267
112141
125269
154696
124234
91862.7
81462.1
76356.8
73483
71593.3
71607.4
95533.4
96146.1
98329.6
101001
105270
112118
125225
154605
124092
91478.8
81204.4
76213.5
73363.7
71540.4
71591.6
95560.3
96178.9
98318.9
100919
105239
112102
125194
154440
123262
90831.5
80867.3
76059.6
73336
71520.2
71580
95610.4
96301.4
97815
100863
105427
112522
125223
154371
122782
90356.2
79435.2
74415.5
71582.6
71588.6
71592.7
95666.7
96381.8
97988.5
100760
105254
113264
126553
159275
116948
88365.9
77122.8
72224.6
71810.8
71647.8
71613.9
95700.6
96419.9
98029.1
100955
105946
112934
129402
159337
116813
84105.8
73826.6
72571.5
71899.7
71684.5
71630.2
95726.6
96452.2
98071.4
101016
106037
112932
129401
159387
117034
84318.6
74073.6
72715.5
71964.9
71715.8
71646
95738
96463.7
98083
101027
106037
112900
129411
159423
117618
84727.1
74248
72807.2
72005
71734.2
71656.3
91533.4
91982.7
92980.7
94805.1
97793.1
104567
112071
109769
27842.8
54194.3
59223.4
62268.9
64199.8
65421.2
65979.8
91511
91957.7
92951.3
94766.3
97761.6
104533
112048
109697
25463.9
53919.3
59119.4
62241.9
64205.7
65430.6
65990.1
91460.4
91894.8
92877.8
94693.6
97644.1
104436
111968
109640
24171.3
53790.9
59083.8
62279.3
64234
65451.2
66010.3
91386.6
91791.1
92746.2
94404.7
98926
104038
111734
109541
23938.8
54076.2
60677.7
62475.6
64293.7
65478
66037.9
91278.2
91647.8
92514
95530.2
98676.3
104441
112508
109395
24785.5
58079.9
62655.2
63987.6
64433.3
65526.8
66060.7
91152.4
91496.9
93638.9
95406.9
99130.6
104667
112336
109141
27119.7
60378.5
64349.7
64298.3
65646.6
65604.6
66073.9
91098.1
91431.7
93600.6
95315.6
99362.8
104598
112238
109007
41888.8
62541.2
65018.8
65427.4
65646.1
65641.5
66088.1
91064.4
91386.1
93551.7
95932.8
99343.2
104553
112170
108838
34402.2
61747
64869.8
65916.8
65640.9
65643.2
66054.2
91071.1
91404
93537.8
95909.8
99326.1
104529
112128
108767
36298.7
60261.4
64257.1
65669.6
65500.3
65551.8
66014.6
91099.9
91442
93569.8
95279.3
99308
104530
112131
108817
28565.2
58902.4
63617.1
64855.7
65365.1
65453
65952.2
91201.6
91569.2
92427.7
95375.6
99065.5
104565
112191
108904
27152.4
58072.6
63052.5
63584.6
64182.4
65350.6
65913.9
91292.5
91693.1
92640.2
94287.9
98704.8
103571
111263
109141
25704.5
55773.6
60247.1
62199.3
64103.8
65322.3
65897.3
91352.5
91783.3
92758
94558.6
97489.6
104041
111567
109165
24098.3
53772.9
59015.4
62176.9
64112.3
65329.1
65890.6
91394.6
91838
92823.9
94623.8
97594.5
104297
111701
109162
24540.2
54196.2
59272.3
62247.8
64152.1
65348.1
65896.2
91412.9
91858.7
92848.9
94658.5
97622.7
104343
111723
109091
28850.6
55199.9
59595.1
62379.6
64200.3
65367.2
65904.7
86379.8
86306.3
86136.5
85878.5
85904.6
90026.5
93859.2
107055
7779.43
32620.3
45401.9
52303.5
56827.1
59474.8
60664.2
86355.9
86279.3
86106.4
85842.9
85884.3
89985.9
93823.8
106883
2946.29
32567.3
45343.1
52326.7
56855.8
59497.2
60685
86305.2
86220.4
86044.2
85821.4
85837.9
89884.1
93727.7
106811
5195.05
32647.4
45476
52456.9
56939.7
59556.8
60732.3
86235.4
86122.2
85943.3
85854.8
88595
89819.9
93515.2
106703
2294.2
33160.1
45940.4
52882.5
57114.7
59661.3
60809
86142.7
86009.3
85877.9
87838.7
88604
91643.4
94574.1
106726
2329.73
34080.9
47122
53882.1
57392
59822.1
60906.2
86041.2
85971.3
87452.9
87737.7
89822.1
92424.2
94459.8
106390
21936.8
37124.7
48363.7
54182.9
58181.3
59969.4
60998.2
86003.9
85943.6
87337.4
87688.9
90443.4
92337.3
94388.4
106333
44325.3
39578.8
49016.7
54746.9
58232.7
60013.4
61030.7
85973.8
85905.7
87274
88651.8
90390.2
92288.7
94342.9
106251
3349.85
37385.6
48678.3
54910.4
58172
60004.9
61002.9
85971.9
85910.5
87257.4
88628
90372.1
92264.3
94311.7
106243
2191.88
34796
47885.4
54635.2
58045.3
59908
60950.2
85978.9
85907.4
87288.7
87660.8
90378.3
92272.2
94306
106238
3893.38
33651.8
47232.9
54098.2
57918.3
59788.8
60855.1
86053.7
85917.6
85780.6
87661.2
89769
92342.6
94343
106256
2319.02
33076.4
46766
53416.3
57100.1
59618
60739.1
86126.3
86010.5
85826.3
85731.2
88513
89816.5
93512.8
106570
2516.96
32740.1
45824.8
52590.4
56898.5
59483
60648.2
86181.6
86094.1
85913.4
85686
85696.9
89693.7
93419.6
106482
2422.03
32767
45424.2
52348
56800.3
59414.4
60590.6
86223.3
86144.8
85968.7
85700.9
85739.6
89782.8
93553
106543
2819.8
33018.2
45467
52322.8
56785.1
59393.3
60568.4
86243.1
86167.7
85995
85732.9
85758
89854.5
93616
106540
4819.48
33486.8
45758.3
52451.3
56825.8
59404.5
60568.6
81080
80422.6
79057.3
76885.7
76569.9
75548.7
78144.6
2153.04
24510.2
38022.7
46184.1
51841
55234.8
56813.8
81058.9
80398.9
79031
76857.1
76530.1
75498.6
78088.5
2204.58
24569
38036.8
46243.9
51879.2
55264.9
56840.6
81020.1
80359.4
78981.3
76818.2
76527.9
75450.3
77976.8
2221.09
24567.2
38255.4
46370.6
51971.2
55340.4
56900.1
80979.6
80313.3
78926
76937.1
76791
75335
77786.2
2239.11
24768.5
37425
46763.5
52153.2
55469.1
56995.2
80941.5
80275.8
79022.2
78962.7
77337.9
77416.7
78462.9
2285.74
23079.5
37340.5
46605.2
52403.4
55650.6
57113.2
80904.4
80362.7
80464.2
79219.2
78684.7
78395.5
78438.4
2275.97
23887.6
37603.5
46822.7
52395.3
55737.1
57228.9
80890.5
80368.8
80400.3
79276.4
79461.3
78440.1
78468.9
2299.3
24662
37958.7
46757.9
52480.7
55749.4
57248
80861.6
80344.1
80355.6
80143.1
79531.9
78444.5
78480
7178.8
24492.6
37799.3
46653.1
52428.2
55736.2
57220.2
80851.1
80327.2
80331.5
80133.6
79505.5
78407.8
78438
2319.97
23371.5
37339.6
46455.3
52336.7
55656.9
57169.6
80829.5
80286.3
80351.9
79210.4
79390.5
78349.2
78372.2
2314.88
22753.7
36930.9
46309.2
52221.8
55569.5
57079.5
80835.5
80165.3
78905.4
78844.4
78541.8
78278.7
78324.4
2313.28
22452.2
36641.3
46288.3
52148
55442.8
56937.9
80851.1
80182
78789.3
76800.9
76714.6
75373
77422.9
2333.56
23299
37355.4
46518.1
51936
55276.8
56814.2
80876.4
80214
78834.8
76678.1
76387.3
75291.9
77757.2
2367.3
24730
38219.2
46243
51802.1
55166
56725.5
80906.3
80245.8
78880
76716.9
76425.1
75381.1
77926.1
2389.27
24842.9
38101.5
46165.3
51746.2
55111.2
56679.1
80923.4
80266.2
78904.4
76745.5
76414.5
75443.5
78038.8
2439.29
24513.1
38214
46210
51755.9
55108.5
56668.8
76547.7
75345.5
72823.9
68423.5
66146.9
58647.6
54512.3
3139.46
2175.95
23585.4
35795.6
44237.8
50012.2
53515.9
55192.7
76524.4
75317.6
72786.3
68368.4
66083.8
58542.1
54329.7
3043.03
2202.41
23110.7
35808.1
44269.9
50034.1
53539.6
55214
76484.1
75274.8
72713.3
68246.9
65991.8
58383.5
54145.4
2965.13
2218.97
19848.5
36034.2
44353.7
50100.7
53598
55259.8
76447.6
75239.2
72604.5
68164.8
65883.9
58192.7
54042.4
2359.16
2251.17
20365.8
33653.7
44527.3
50208.7
53690.9
55330.7
76427.1
75202
72524.1
71106.5
65631.9
61052.9
55909.1
2265.77
2280.34
18452.9
32577.5
43030.6
50328.2
53838.5
55413.5
76410.6
75199.7
74437.9
70958.2
67579
62405.9
56049.3
2286.68
2285.51
18596.8
32151
43101.2
49374.9
53886.2
55517.5
76387.5
75170.3
74395.5
70825.5
68434.2
62499.9
56306.1
2409.09
2285.22
18672.2
32257.1
42377.2
49415.9
53873.1
55510.9
76351.2
75139.8
74343.3
72166.3
68418.9
62541.3
56471.7
4399.94
2281.47
18588.5
32199.3
41990.9
49388.1
53853.9
55485.7
76338.4
75116.5
74321
72151.1
68372.5
62455.6
56324.8
4338.34
2285.97
18525.3
32078.2
41895.6
49330
53791
55439
76318.2
75101.7
74340.3
70760.1
68342.5
62332.4
56111.4
2071.51
2298.69
18617.1
31945
42156.8
49250.1
53731.3
55368
76297.9
75065.6
72371.9
70929.5
67457.1
62247.7
55909.3
2913.49
2301.86
18376.1
31810.6
42798.4
50096.2
53630.8
55234
76292.7
75079.1
72433.4
67990.3
65636.5
58038.4
53968.8
2267.07
2327.78
19261.4
33520.9
44276.4
49969.4
53475.2
55122.5
76313.2
75100.7
72535.3
68075.9
65754.3
58211
54050.9
3174.53
2367.27
20545.2
35861
44136.4
49862.9
53369.5
55036.1
76344.7
75136.8
72606.8
68206.8
65920.8
58424.3
54262.5
2646.4
2393.02
23859.6
35602.3
44034.6
49784.7
53301.4
54980.8
76364.2
75162.1
72644.9
68267.9
65998.8
58593.3
54530.2
2703.89
2370.18
24235.9
35550.8
43943.7
49755.9
53280.8
54960.6
73619.3
71992.3
68540.1
62443
51937.4
42359.6
17704.7
2268.63
2202.49
25503.5
37430.3
45628.2
51118.1
54423.2
56000.7
73585.3
71950.5
68474.5
62345
51793.8
42155.1
17752.6
2259.29
2204.76
24988
37476.8
45618.1
51115.9
54431.5
56009.9
73524.9
71882.8
68366
62202.5
51562.2
41686.1
17597.6
2245.29
2226.79
20467.5
37403.4
45656.2
51138.1
54456
56031.3
73458.4
71822
68217.4
62029.1
55963.9
41254
17603.6
2260.13
2257.83
20440.2
33680.4
45652.7
51152.1
54485.1
56062.8
73409
71769.3
68139
64606.8
55876.9
45036.9
24012.9
2266.92
2281.78
17671.1
31973.3
43040.9
51165.6
54558.5
56097.1
73372.6
71714.8
69797.1
64535.2
58093.4
46967.2
24925.6
2272.66
2250.53
17671.7
31089.5
42960.8
49359.5
54580.6
56161.6
73326.4
71652.3
69793.7
64436.6
59083.9
47231.2
25782.1
2276.6
2268.03
17469.2
31026.3
41659.5
49332.1
54551.3
56136
73279.9
71608
69745.3
65795.8
59007.9
47300.9
26416.8
2558.78
2250.82
17230.6
30930.2
41003
49289.8
54523
56112.7
73265
71582
69713.5
65755.2
58923.7
47076.3
25645.7
2363.44
2302.18
17441.6
30914.2
40951.1
49255.8
54471.8
56066.1
73258.6
71587.6
69713.2
64318.2
58900.2
46853.8
25115.1
2302.45
2334
17728.3
30929
41533.9
49218.7
54426.8
56012.2
73250.4
71597
67929.5
64452.6
57871.9
46710
24714.5
2282.56
2315.14
17595.3
30918.9
42750
50914.4
54341.8
55901.5
73270.1
71621.2
67988.7
61769.8
55719.2
41116.1
19216
2252.85
2275.66
18682.5
33480.7
45320.1
50858.4
54223.9
55815
73318.9
71666.7
68131.5
61948.7
51316.3
41380.8
17566.9
2227.91
2376.24
20711.2
37009.9
45285
50799.6
54150.3
55744
73370.1
71728.3
68240.5
62109.9
51593.1
41854
17740.5
2224.98
2395.86
25306.9
36772.5
45165.1
50720.5
54084.8
55689.3
73400.4
71768.3
68307.9
62219.3
51763.5
42178.7
18041.1
2240.85
2378.59
26285.9
36177.9
45024.8
50672.4
54050.3
55662.4
72949.2
71249.9
67609.8
61381.2
50381.2
39180.9
4971.94
2274.52
2182.59
31183.1
42606.8
50102.2
54873.9
57663.9
58985.7
72900.4
71189.8
67512.6
61196.6
50250.2
38552.5
4803.92
2247.83
2843.97
31606.2
42724.7
50057.7
54851.5
57657.1
58983
72816.5
71092.9
67359.9
60932.6
50478.1
37005.3
6686.35
2259.52
2221.94
24300.5
42641.2
50075.8
54823
57653.1
58983.6
72720
71000.6
67212.5
60749.9
52601.5
35978.1
8440.42
2285.05
2251.76
24114.1
37759.8
49994.4
54773.5
57640.7
58986.9
72645.2
70940.7
67181.1
62205.5
52260.8
38516.5
17018.2
2280.72
2277.89
20074.1
35308.4
46562.3
54769.4
57667.5
58991.3
72593.4
70898
68036.3
62052.8
53715.9
39716.4
17267.2
2277.23
2279.44
19951.8
33970
46370.4
52315.8
57701.1
59036
72528.8
70816.7
67993.6
61943.6
54369.4
39899.1
19116.8
5938.8
2288.01
19711.6
33765.3
44563.9
52233.8
57666
59003.7
72476.5
70758.3
67947.7
62863.5
54251.2
39950.1
18202
2260.84
2284.9
19298.6
33552.8
43626.7
52179.2
57635.7
58985.1
72454.8
70729.3
67910.9
62805
54139.4
39671.7
17434.6
2272.03
2272.23
19191.1
33464.9
43559.4
52146.5
57587.5
58936.4
72457.4
70738.2
67881.5
61780.5
54106.8
39371.1
16955.9
2301.08
2311.43
19642.5
33546.8
44409.4
52129.7
57543.9
58890.7
72456.1
70726.6
66898.1
61915
53385.4
39331.5
16993.9
2320.82
2298.35
19673.4
33684.4
46143.2
54481.6
57437.5
58782.7
72496.9
70751.8
66905.2
60358.5
52044
35949.8
16585.3
2249.8
2311.11
21220.8
37277.1
49555.3
54420.5
57340.2
58711.6
72573.1
70826.1
67044.2
60543.5
50026.5
35933.3
7128.64
2267.1
2386.49
24007
42000.9
49556.6
54393.4
57289.9
58653.6
72647
70917
67199.9
60834.2
49915.6
38153.2
4566.42
2242.06
3682.92
30740.8
41650
49447.5
54332.9
57234.5
58604.9
72691.8
70975.3
67300.7
61020
50161.6
38434.3
4709.24
2243.77
2411.56
29768.4
40857.7
49356.9
54276.9
57198
58578.2
74779.2
73483.5
70712.5
66330.2
56772.9
47251.4
4186.59
2252.44
26129.3
47451.3
52610.5
57895.3
61025.1
62848.5
63729.9
74716.4
73401.7
70581.1
66023.8
56376.9
46476.8
2427.64
2291.14
27625.2
47537.1
52587.8
57801.2
60983.6
62829.9
63719.3
74611.1
73271.7
70387
65500.9
58064.6
43442.2
12243.3
2386.49
5803.98
36176.2
52616.4
57683.3
60897.8
62808.6
63708.1
74488.7
73122.9
70132.4
65122.7
57021.9
41765.9
13438.4
2302.95
2238.21
34192.9
46692.3
57554.2
60793.6
62782.6
63703.8
74389
73011.4
70021.5
64885.4
56031.4
41736.6
18785.2
2285.99
2253.65
27269.9
43440.8
53627.2
60840
62808.2
63711.2
74316.3
72957
69830.3
64447.8
55991.3
41611.3
18056.2
2287.93
2267.19
26711.5
41478.2
53411.3
58029
62912.4
63782.1
74232.5
72849.9
69650.5
64217.4
55942.2
41213
17496.7
2283.57
2402.04
26378.4
41052.3
51206.5
57931.2
62902.6
63763.2
74175.8
72779.8
69567.7
64389.6
55693.8
41250.6
20616
2415.83
2307.74
25780.3
40626.2
50014
57902.4
62890.7
63758.3
74151.9
72750.9
69530.1
64319
55566.7
41034.3
19722.2
2293.09
2483.69
24947.9
40354.2
49900.8
57857.6
62834.1
63704.1
74167.1
72773.3
69525.9
64028.4
55598.9
40733.9
17474.2
2299.63
4383.69
25605
40507.5
50965.8
57810.5
62771
63657.2
74181.6
72765.3
69670.6
64250.4
55528.7
41014.6
17652.3
2347.85
2331.55
26003.4
40904.3
53109.8
60546.4
62584.6
63512
74244.7
72837.5
69752.7
64578.7
55789.6
40551.2
17469.5
2300.6
2351.27
28679.4
45709.2
57017.5
60406.3
62475.3
63432.6
74344.2
72965
69991
64936.6
57265.2
41760
12441.8
2356.89
8395.55
34030.8
51671.8
57044.2
60418.5
62431
63375.2
74438.2
73088.9
70193.1
65488.5
55846
45573.6
2586.91
2352.42
25378
45520.3
51333.5
57048.6
60392.9
62384.9
63331.7
74496.3
73168
70329.2
65779.8
56351.9
46114.4
5117.91
2369.23
11825.3
42924
50432.4
56947.4
60326.5
62352
63307.5
78651.9
78124.5
77032.5
76567.4
74253.3
81802.5
114772
92414.5
82685.9
72526.5
67741.2
68614.9
68928.1
69364.9
69642.2
78580.2
78017.7
76864.2
76097.4
73490.6
79792.5
111607
76230.2
78295.3
71029.7
67304.8
68377.4
68852.1
69334.2
69627.4
78459.3
77844.7
76614.3
74789.2
73204.8
65295.7
64686.5
45981.6
47738.3
59138.9
66728.7
67860.8
68698.3
69296.4
69609.8
78316.5
77642.3
76214.5
74129.7
68098.9
59861.7
39756.9
3413.43
25502.1
55797.2
61285
67523.6
68548.7
69271.3
69608
78200.3
77482.5
76011.7
71918.6
66884
56112
32270.3
4041.75
11455.7
44964.2
57462.9
63992.1
68603.3
69322.2
69637.9
78122
77411.5
74612.6
71346.2
65090
53774.3
29599
2266.09
9878.81
42688.3
54966.7
63908
66007.7
69423.3
69740.4
78031
77296.8
74327.7
71059.3
64130.4
52377.3
27341.9
2279.49
9904.95
41493.4
54353.3
61586.5
66042.6
69458
69753.1
77976.8
77227
74214.7
70285.6
63652.8
51573.6
26372.8
3070.87
12253.2
39509
53728.6
60261.6
66105.2
69488.3
69777
77955.9
77199.4
74176.8
70204.5
63482.8
51348.5
26468.5
2319.84
2359.97
36918
53210.6
60128.2
66058.6
69421.8
69714.6
77982.5
77231.5
74208.4
70825.6
63627.2
51540
26705.2
2329.35
3520.16
38810.1
53398.4
61306.1
65933.2
69338.7
69665.2
78004.7
77236.9
75632.1
71009.1
64402.1
52419.5
27403.3
2303.7
13245
41273.4
54071.3
63548.5
68388.8
69152.7
69486.1
78086.1
77360.4
75809.8
73506
66269.6
56688.8
30655.4
2338.81
11570.4
46265.3
59801.9
67049.6
68208.5
69017
69387.8
78204.4
77537.6
76186.6
74111.5
72062.7
60056.7
43936.1
17822.5
38035.5
55374.3
65701.2
67222.6
68259.3
68967.7
69325
78312.3
77700.9
76448.5
75398.2
72545.3
78149.1
106309
74849.6
75309.8
69501.2
66243.3
67648.4
68309.9
68939.4
69287
78377.5
77800.2
76617.4
75823.9
73380.8
79646.7
108762
87301
79514.6
70909.1
66179.4
67717.4
68278.2
68918.7
69265.7
83486
83760.1
84207.5
86908.6
90626.7
95660.5
121866
120957
108841
90091.3
82174.8
79204.3
77008.4
76207.6
75893.9
83428.8
83666.1
84116.6
86690.4
90549.8
96263.8
126694
135051
109335
89815.8
81918.7
79003
76951.5
76179.3
75884
83321.7
83467.7
83950.3
85241.3
89223.8
91829.1
114449
139492
110681
87755
81003.9
78357.9
76814.2
76134.5
75869.9
83190.4
83270
83538.8
84486.4
83638.6
88841.8
106992
141834
105952
85561.7
78552.9
77825.6
76679.6
76113.7
75874.7
83085
83112.6
83233.6
81521.2
82101.3
81679.7
83250.9
104569
85690.6
77838.3
75962.1
75771.8
76655.6
76159.9
75912.5
83024.7
82967.7
81294.5
80972.2
79276.5
77650
75797.8
55576
66468.9
74184.1
74047.9
75715
75006.9
76173.2
75998
82949.3
82863.5
81089.1
80620.3
77555
75624.4
68029.1
8734.05
57425.8
72176.9
73638.5
74469.1
75177.3
76222
76038.4
82913
82819.7
80997.6
79218.1
77051.3
74050.9
62202.8
3998.7
84920.1
71380.7
73617.8
73778.6
75245.4
76289.5
76089.7
82901.3
82802
80972.1
79139.2
76832.6
73590.2
62858.1
16215.5
2452.45
68942.6
73524
73788.6
75260.6
76245
76047.7
82934.1
82849.9
81004.5
80403.2
76912.6
73973.1
64577.5
58416.9
17836.3
68728.2
73320.4
74504.5
75191.5
76181
75988.3
82951.2
82940.2
82974.6
80722.6
78425.9
75304.4
67372
2226.7
46904.9
71448.1
73520.4
75633.8
76622.9
76113.1
75856.5
83028.5
83067.7
83236.2
84018.9
81852.1
84551
84869.7
70778
75606.2
78314.2
77507.9
77629.8
76517.2
75980.3
75754
83134.7
83234.1
83614.4
84698.5
88272
89501.9
111032
143902
107779
85665.5
80376
77947.1
76541
75925.7
75686
83228
83414.3
83797.1
86091.5
89566.9
95447
123530
129640
106960
89071.9
81242.1
78524.6
76598.5
75911.9
75649.2
83277.6
83497.2
83891.7
86288.6
89844.9
94862.2
120578
121520
106455
89518.1
81316.8
78652.1
76582.2
75898.6
75626.5
87985.8
88657.3
89616.5
92207.6
96678.6
96189.6
103543
108216
103818
94545.5
90000.3
86364.7
83506
82213.3
81569.6
87986.2
88651.3
89724.7
92566.1
97463.8
98324
107169
114494
105201
95785.1
90443.1
86478.5
83570.5
82229.4
81586.9
87961.1
88543.5
89873.6
92298
96950.5
99993.5
108013
120314
106526
97482.1
90231.2
86302
83607.3
82234.5
81610.1
87905.6
88459.7
89735
92443.7
94163.9
101983
115366
130943
116772
99169.8
90386.4
86239.3
83659.9
82265.5
81651.4
87842.7
88349.7
89531.5
90113.3
94033.5
100501
116918
153920
126266
101448
90413.3
85619.6
83719.9
82345.6
81717.2
87787.3
88143.4
88040.6
89713.9
92077.9
99009.6
119295
166526
129054
101951
90690.3
86036.1
83122.7
82360.3
81811
87746.6
88064.2
87974.9
89526.5
91040
98779
120161
179007
133148
103419
91692.5
86210
83460.6
82505.2
81899.5
87743.2
88055.4
87927.1
88478.3
90820.6
98250.7
118577
185140
144042
107596
93190.3
86548.5
83744.8
82626.1
81989.8
87747.6
88065.5
87936.2
88449.3
90718
97848.3
116854
190028
150943
114856
94210.3
86780.9
83787.7
82603.5
81961.5
87785.3
88141.6
87968.6
89481
90769.6
97819.1
116030
184259
148571
110067
93291.5
86636.2
83565.5
82492
81888.8
87821.4
88322.6
89484.4
89848.6
91866.6
98249.7
118506
189212
138543
104675
91758.2
86254.6
83916.5
82440.7
81771.3
87869.4
88419.7
89685.9
92385.6
93968
102658
118254
156969
130406
102123
90949.4
86417.5
83735.1
82294.9
81657.4
87900.8
88464.8
89769
92149.8
96873.6
101038
111793
129387
111366
99017.1
90348.6
86274.3
83577.2
82187.2
81559
87913.6
88545.1
89623.8
92378.3
96962.3
98217.5
106035
113071
104357
95655.9
90181.1
86324.5
83458.1
82127.9
81492.3
87905.4
88537.4
89516.2
91992.5
96368.9
96385.8
103335
108153
101597
94428.7
89568.3
86137.6
83336.5
82076.9
81447.5
91389.7
92024.1
92841
93962.2
97241.7
96473.5
98192.7
102004
97766.7
94551.9
92655.4
90043
87870.9
86746.1
86083.8
91460.6
92118.7
93055.4
94563
98067.3
97955.3
99900.8
101992
99004.1
95971.8
93325.3
90384.2
88054.8
86826.3
86144.1