/*--------------------------------*- C++ -*----------------------------------*\
| =========                 |                                                 |
| \\      /  F ield         | OpenFOAM: The Open Source CFD Toolbox           |
|  \\    /   O peration     | Version:  v2012                                 |
|   \\  /    A nd           | Website:  www.openfoam.com                      |
|    \\/     M anipulation  |                                                 |
\*---------------------------------------------------------------------------*/
FoamFile
{
    version     2.0;
    format      ascii;
    class       volScalarField;
    location    "0.029";
    object      p;
}
// * * * * * * * * * * * * * * * * * * * * * * * * * * * * * * * * * * * * * //

dimensions      [1 -1 -2 0 0 0 0];


internalField   nonuniform List<scalar> 
449343
(
106331
106465
106688
106903
106995
106740
105950
104549
102590
100285
97926.1
95790.9
94072.4
92882
92275.6
106317
106452
106676
106892
106985
106731
105943
104545
102589
100287
97929.9
95793.8
94073.2
92880.7
92273.1
106308
106443
106669
106888
106983
106731
105946
104553
102605
100309
97954.7
95817
94092.1
92895.6
92285.6
106301
106438
106668
106890
106987
106737
105957
104570
102631
100344
97995.3
95855.6
94124.5
92921.9
92308.4
106296
106435
106667
106893
106993
106744
105969
104591
102663
100386
98043.7
95901.5
94162.8
92952.6
92335
106289
106430
106665
106894
106996
106750
105980
104610
102693
100426
98088.7
95943.7
94196.8
92979.1
92357.2
106278
106420
106658
106889
106992
106748
105982
104617
102708
100451
98114.7
95969.1
94215.6
92991.9
92366.7
106260
106403
106642
106874
106976
106735
105967
104602
102697
100446
98112.1
95965.6
94209.6
92983.7
92357.5
106236
106378
106616
106848
106950
106707
105941
104575
102667
100410
98074.1
95928.8
94175.5
92952
92327
106205
106347
106582
106812
106913
106668
105898
104527
102611
100345
98007.8
95863.3
94116.9
92899.6
92277.8
106171
106310
106543
106769
106869
106622
105847
104469
102542
100265
97923.2
95781.6
94043.4
92833.8
92216.4
106135
106272
106502
106725
106823
106574
105795
104408
102470
100184
97835.5
95696.5
93966
92763.9
92150.8
106100
106236
106463
106683
106779
106529
105744
104352
102404
100109
97755.8
95618.8
93894.7
92698.7
92089
106069
106204
106429
106646
106741
106489
105701
104304
102350
100048
97691.9
95556.6
93836.7
92644.9
92037.6
106044
106178
106402
106618
106711
106458
105669
104269
102311
100007
97648.9
95514.6
93796.9
92607.1
92001
106178
106359
106682
107050
107319
107285
106628
105161
102946
100299
97641.3
95307.6
93479.9
92236.8
91609.9
106164
106346
106670
107040
107311
107278
106622
105159
102949
100306
97649.7
95313.9
93482.8
92236.9
91608.5
106154
106338
106665
107038
107313
107281
106627
105171
102970
100338
97685.2
95344.6
93506.3
92254.5
91623.1
106148
106334
106666
107044
107320
107287
106637
105186
103003
100388
97742.8
95395.6
93545.9
92285.2
91649.1
106143
106332
106669
107052
107333
107294
106654
105216
103037
100450
97815.6
95458.8
93593.7
92321.5
91679.6
106137
106329
106671
107060
107344
107306
106667
105243
103086
100512
97886.4
95520.5
93638.6
92353.7
91705.8
106127
106321
106666
107060
107342
107313
106677
105262
103118
100557
97943.3
95563.5
93665.7
92371.3
91718.4
106109
106304
106651
107046
107329
107301
106661
105194
103103
100555
97948.2
95565.2
93662.1
92364.9
91710.2
106085
106279
106624
107018
107300
107272
106635
105219
103076
100515
97902.1
95522.6
93625.3
92331.2
91678.5
106053
106245
106587
106977
107261
107223
106584
105160
103003
100429
97804.4
95439.2
93558
92273.8
91626.2
106018
106207
106544
106928
107209
107171
106531
105093
102915
100328
97694.2
95338.1
93473.9
92202.4
91560.9
105981
106167
106499
106878
107156
107124
106474
105024
102842
100227
97582.5
95236.1
93387.2
92127.2
91491.5
105946
106130
106458
106832
107108
107078
106425
104969
102770
100138
97485.9
95146.3
93308.8
92057.8
91426.7
105915
106097
106423
106793
107066
107035
106380
104918
102709
100067
97411.4
95076.6
93246.5
92001.3
91373.3
105889
106071
106395
106763
107034
107003
106347
104881
102667
100021
97363.9
95031.3
93204.6
91962.2
91335.7
105786
106075
106625
107353
108089
108616
108359
106722
103823
100282
96889.3
94106.5
92042.4
90687.8
90018.6
105772
106062
106614
107346
108085
108613
108357
106726
103835
100300
96908.3
94120
92049.8
90690.9
90019.6
105762
106055
106612
107351
108096
108625
108364
106750
103872
100360
96970.1
94167.5
92083.1
90714.8
90039
105757
106053
106618
107366
108119
108637
108363
106779
103907
100448
97073.9
94247.9
92138.5
90755
90072.1
105753
106054
106629
107390
108149
108641
108345
106771
103939
100579
97208.1
94350.5
92208.2
90803.7
90111.3
105748
106055
106641
107412
108185
108655
108356
106825
104037
100709
97364.4
94459.6
92276.4
90849
90146.2
105738
106049
106641
107427
108186
108681
108379
106867
104107
100787
97538.8
94544.7
92325.9
90877.2
90165.4
105721
106034
106628
107418
108182
108687
108402
106829
104107
100795
97555.4
94555.9
92328.3
90874.7
90159.8
105695
106007
106599
107385
108143
108638
108334
106822
104062
100743
97496.1
94502.3
92284.5
90836.5
90125.2
105663
105971
106557
107329
108102
108571
108271
106739
103951
100623
97279.6
94376.2
92194.6
90768.5
90066.4
105626
105928
106503
107264
108024
108516
108221
106647
103814
100455
97084.8
94228.4
92087.6
90684.3
89992.7
105588
105885
106450
107200
107954
108473
108200
106617
103745
100287
96912.9
94087.9
91979.8
90597.4
89915.1
105552
105845
106403
107143
107890
108421
108162
106549
103671
100160
96770.6
93969.2
91886.1
90518.9
89843.6
105520
105811
106364
107097
107838
108369
108114
106485
103595
100061
96669.9
93883.1
91814.3
90456.4
89785.7
105495
105784
106335
107065
107803
108333
108078
106442
103544
100003
96611.9
93830.6
91768
90414.4
89745.8
105027
105473
106363
107672
109267
110856
111751
109785
105383
99962.2
95328.3
91927.4
89588.3
88124.5
87422.6
105012
105460
106353
107668
109268
110858
111745
109796
105404
99997.1
95361.4
91949.2
89600.7
88131.2
87426.5
105001
105453
106355
107682
109297
110891
111763
109852
105487
100119
95463.5
92017
89645.2
88162.7
87451.9
104994
105451
106367
107717
109346
110946
111633
109930
105502
100340
95655.8
92135.1
89719.5
88214.7
87493.9
104989
105455
106389
107762
109420
110936
110940
109727
106383
100672
95920.9
92303
89816.5
88278.6
87544
104984
105459
106421
107846
109535
110185
110868
109792
106591
102053
96273
92492.9
89919.4
88339.3
87589.7
104973
105457
106435
107879
108876
110247
110892
109854
106702
102231
97637.9
92626.8
89994.1
88380.2
87616.8
104956
105444
106428
107876
108872
110275
110937
109794
106747
102295
97669.2
92648
90011.5
88384.7
87613
104930
105414
106392
107837
108841
110231
110876
109827
106699
102237
97625.2
92580.6
89950.5
88338.6
87576.2
104897
105373
106336
107762
109450
110131
110797
109742
106563
102080
96180.4
92404.7
89835.3
88257.8
87509.7
104860
105326
106261
107635
109295
110810
110829
109641
106389
100544
95794.8
92178.7
89694.9
88159.4
87426
104822
105280
106197
107549
109180
110783
111469
109768
105341
100179
95494.7
91974.9
89561.3
88058.2
87338.4
104787
105239
106143
107473
109090
110686
111562
109650
105286
99918
95264.1
91819.4
89449.6
87968.8
87258.8
104756
105205
106100
107417
109020
110613
111504
109555
105164
99757.1
95123.4
91713.5
89367.2
87899.3
87195.4
104731
105178
106070
107381
108979
110571
111470
109505
105103
99683.5
95051.6
91653.1
89316.2
87854
87152.9
103702
104319
105602
107645
110511
114100
117917
115183
107735
98563.1
92241.9
88359.2
85916.1
84475.4
83813.5
103684
104303
105590
107640
110516
114111
117910
115190
107774
98623
92287.3
88384.8
85930.9
84484.4
83819.5
103668
104291
105589
107661
110571
114183
117953
115250
107938
98803.1
92422.2
88461.6
85981.1
84521.2
83849.3
103653
104284
105601
107730
110745
114390
115674
115426
109648
99438.8
92763.3
88617.5
86066.3
84581.1
83897.9
103640
104280
105629
107807
110866
112918
115734
115506
109983
101985
93202.3
88829.7
86184.7
84655.2
83956.3
103629
104287
105687
108025
110025
113157
115861
115580
110229
102565
95669.9
89139.4
86301.9
84731.8
84010.3
103611
104272
105684
107432
110101
113300
115002
115048
110773
103815
96141.2
91146.9
86359.7
84765.7
84040.1
103595
104263
105731
107423
110141
113348
115068
115126
110957
104031
96358.1
91275.1
86480.1
84766.7
84042.6
103567
104228
105639
107386
110101
113304
115008
115081
110865
103961
96250.6
91204.7
86311.1
84722.2
83998.8
103541
104200
105601
107941
109954
113130
114954
114923
110608
102676
95790
89040.8
86212.7
84648.9
83930.4
103508
104149
105499
107679
110739
112877
115647
115368
109911
102166
93071.6
88701.7
86061.8
84536.6
83839.9
103477
104109
105428
107561
110579
114228
115537
115329
109718
99283.2
92603.2
88457.5
85909.4
84427.2
83745.6
103448
104073
105373
107448
110363
113982
117751
115131
107736
98600.7
92223.1
88265.8
85788.4
84330.9
83660.4
103421
104042
105331
107385
110265
113864
117672
114982
107531
98381
92049.9
88151.7
85701.1
84256.9
83593.3
103398
104017
105303
107349
110219
113813
117640
114915
107455
98283.7
91966.6
88087.9
85648
84209.7
83549
101562
102301
103900
106643
111020
117921
123511
128797
114990
93724
86414.5
82848.2
80771.7
79670.8
79202.6
101538
102279
103880
106631
111024
117930
123502
128796
115010
93781.6
86454.9
82866.9
80784.1
79679.6
79209
101511
102254
103862
106622
111051
117996
123512
128823
115062
93871.2
86521.6
82904.5
80826.3
79715.4
79239.6
101481
102232
103860
106684
111434
115840
123634
128993
115238
98628.7
86855.4
82968.2
80897.1
79776
79290.1
101447
102198
103836
106758
110237
116147
124006
126737
116888
99761.5
90493.8
83144.5
80961.6
79838.8
79349.8
101420
102168
103891
106359
110369
115268
122333
125938
117468
102707
91201.8
85882.8
81066.2
79894.6
79404.6
101384
102122
103875
106400
110527
115336
121525
126242
118619
104414
93398.1
86237.4
81101.3
79908.5
79430.3
101354
102080
103869
106456
109882
114848
121609
126461
119117
104932
93702.4
86408.6
83160.2
79867.7
79424
101339
102078
103832
106401
109852
115298
121568
126372
118964
104797
93589.5
86267.5
81043.7
79862.4
79388.6
101329
102079
103804
106271
110421
115262
121405
126072
118349
104164
93163.1
85994.9
80968.5
79810.5
79325.8
101311
102063
103705
106631
110130
116129
122088
126705
117174
102262
90746.6
83009.2
80837.4
79722.5
79237.1
101299
102051
103682
106512
111269
115742
123574
128928
115248
98855.7
86698.7
82810.3
80743.6
79626.9
79143.5
101283
102028
103639
106404
110839
117793
123362
128668
114957
93663.9
86323.5
82712.1
80638.8
79531.6
79057.8
101266
102008
103613
106369
110769
117685
123264
128569
114792
93531.3
86218.7
82637.9
80560.2
79459.2
78990.4
101248
101989
103591
106339
110724
117635
123240
128526
114723
93442.1
86142.2
82582
80510.2
79412.6
78946
98388.2
99101.8
100697
103607
108581
115435
131941
161863
118701
85799.4
75841.5
74655
73988.6
73786.8
73737.4
98356.3
99069.1
100662
103571
108549
115409
131898
161829
118724
85822.8
75852.1
74654.1
73995.4
73793.6
73743
98310.9
99018
100602
103480
108424
115360
131783
161752
118715
85884.7
75787.6
74643.2
74021.7
73821.8
73771.7
98254.9
98956.6
100530
103268
107812
115708
131769
161584
118571
86164.1
79442.1
74480.7
74058.4
73869.4
73820.1
98179.9
98857.5
100343
103341
107829
114826
128807
161427
119872
90650.1
79654.1
77070.1
74020.1
73916.2
73876.1
98106
98711.6
100807
103392
107580
114792
127396
156517
125752
93879.3
82769.8
77387.6
76048.3
73937
73929.3
98055.8
98655.7
100792
103384
107603
114375
127299
156673
128396
96063
85072.3
79499.6
76165.2
73997.8
73969.4
98002.5
98604.6
100832
103393
107592
114339
127254
156932
131389
97936
85822.3
79785.5
76296.7
74010.7
73939.5
98009.9
98610.2
100764
103389
107592
114320
127220
156758
130330
97371.6
85602.9
79682.5
76179.8
73951.4
73928.7
98010.8
98619.2
100737
103295
107555
114312
127222
156445
127361
95284.9
84666.6
79244.4
76019.9
73855.1
73854.7
98037.6
98717.2
100208
103220
107717
114733
127309
156383
125529
93552.3
82470.7
77068.8
73897.3
73805.8
73770.9
98063.1
98766.6
100344
103091
107546
115486
128703
161343
119024
90674.6
79403.4
74330.7
73913.2
73729.7
73683.5
98070.8
98780
100369
103253
108207
115169
131598
161480
118511
85822.3
75591.2
74458.2
73843.7
73648.8
73601.3
98069.5
98783.8
100381
103297
108286
115169
131637
161565
118396
85597.4
75618.7
74432.6
73781.4
73584.4
73536.4
98058.3
98773.5
100372
103289
108273
115143
131663
161592
118438
85520.9
75576.2
74397.9
73737.5
73540
73492.9
94120.8
94551.2
95511.2
97276
100190
106919
114358
112040
25311
55155.4
60755.1
63999.9
66026.8
67291.4
67866.7
94081.8
94510
95463.8
97217.5
100133
106852
114295
111902
25678.7
55163.4
60727.8
63999.7
66039.2
67299.4
67872.9
94019.3
94434.1
95374.6
97127.1
99999.8
106710
114146
111721
25444.4
55241.7
60733.8
64077
66089.8
67333.8
67905
93938.2
94325
95241.9
96827.4
101266
106252
113820
111440
25644.3
55563.4
62377.6
64305.4
66204.4
67401.6
67965.3
93829.7
94181.4
95010.3
97951.6
101000
106624
114505
110982
26016.1
59521.5
64490.5
66043.1
66435.1
67524.9
68047.7
93706.5
94042.9
96131.5
97839
101468
106834
114164
110268
28958.1
61912.2
66670.5
66634.2
67929.9
67702.8
68132.8
93654.5
93983.5
96102.6
97760.9
101714
106735
113897
109391
45573.9
66803.3
68569
68341.5
68096.9
67832.9
68209.5
93612
93931.2
96057
98386.1
101700
106683
113730
108569
72403.8
71805.5
69910.4
69437.7
68237.2
67872.1
68208
93609.2
93940.2
96036.1
98358.5
101685
106674
113736
108703
60010.6
69811.3
69408.4
69269
68117.5
67790.8
68174.4
93602.8
93942.4
96045.7
97708
101661
106703
113892
109483
41799.8
64870.7
67775.2
67980.2
67888.6
67628.2
68067.6
93679.6
94033.4
94870.5
97774.1
101396
106767
114127
110256
32097
61556.7
66202
66115.7
66322.4
67427.1
67956.3
93732.9
94122.3
95041.9
96642.3
101007
105793
113350
110988
26836.6
57840.7
62342.4
64167.6
66076.1
67278.8
67845.7
93761.3
94178.5
95125.8
96885.5
99771.4
106281
113775
111368
24919.1
55101.1
60547.8
63904.7
65927.7
67178.2
67752.3
93773.2
94202.3
95160.4
96922.5
99849
106553
113987
111602
24467.1
54892.6
60503.9
63790.3
65840
67106.9
67683.6
93767.3
94198.9
95161.1
96932.2
99858.2
106600
114060
111713
25314.4
54883.5
60502.2
63756.2
65790.6
67061.1
67639.5
89031.3
88938.3
88725.4
88395
88333.9
92354.7
96095.6
109314
5766.29
33679.8
46882.1
53943.7
58547.1
61227.3
62428.3
88989.6
88893.1
88676.9
88340
88289.6
92286.1
96026.6
109094
2324.05
33683.2
46847.1
53966.4
58567
61236.7
62434.2
88926.2
88820.6
88597.7
88293.1
88217.5
92150.6
95880.4
108938
5102.98
33849.3
46981.9
54104
58642.5
61286
62471.4
88849.4
88716.1
88485.1
88323.9
90980.1
92077
95615.9
108720
4034.08
34266.4
47399.1
54513.1
58830.4
61396.6
62551.3
88760.6
88612.3
88457.1
90323.9
91002.9
93894
96633.6
108569
6457.7
34707.7
48533.2
55604
59157.2
61598
62676.1
88667.6
88593.3
90011.1
90259.2
92248.1
94692.3
96487.3
108030
3793.63
36666.8
49987.6
56150.4
60128.7
61821
62811.2
88636.2
88575.8
89923
90256.3
92914.8
94657.4
96423.3
107772
2992.48
41134
51688.3
57163.1
60358.7
61956.3
62902
88599.9
88535.9
89871.5
91230.7
92909.9
94677.6
96442.8
107681
32620.5
45189.3
52734.4
57757.1
60468.1
62000.6
62913.8
88586.6
88527.3
89847.8
91205.3
92903.1
94684.1
96473.1
107890
5610.97
41227.2
51978.2
57564.3
60372.1
61921.4
62877.3
88560.3
88492.3
89852.4
90212.2
92875
94659.5
96474.2
108045
2302.04
37781.5
50573.1
56753.7
60147.3
61761.4
62764.3
88596.1
88449.5
88303.3
90139.2
92200.1
94667.8
96498
108181
8391.05
35928.3
49373.3
55634.1
59065.5
61524.2
62609
88624.3
88494.6
88270
88119.9
90856.3
92062.8
95662.2
108630
2976.83
34438.2
47656.3
54399.6
58729
61301.3
62458.7
88643.2
88539.5
88323.7
88030.8
87964
91892.1
95558.3
108641
4598.04
33842.2
46829.8
53956.3
58506.2
61156.5
62345.2
88650.8
88553.4
88336.7
88004.3
87964.3
91944.7
95691.8
108773
2383.13
33614.3
46656
53779.4
58390.3
61067.8
62269.5
88644.2
88549.1
88334.1
88003.7
87950.3
91992.3
95755.3
108853
3248.68
33479.6
46651.2
53717.5
58330.5
61018.9
62224.4
83820.1
83145.7
81737.8
79469.6
79082.2
77835.2
80285.3
2299.85
25703.3
39598.7
47826.9
53508.9
56897.5
58471
83778.9
83101.1
81690.1
79422.5
79022
77758.3
80201.6
2296.31
25628.5
39557.8
47840.4
53510.6
56894.2
58465.3
83723.9
83045.6
81623
79351
78986.8
77683.8
80062.1
2293.08
25521.7
39678.9
47906.9
53544.5
56922.2
58481.3
83674
82990.7
81544.4
79464.7
79231.7
77590.8
79866.8
2296.06
25699
38706.7
48201.1
53663.2
57003.2
58534.4
83642.9
82966.7
81686.2
81578.2
79800.7
79739.3
80601.5
2295.47
23982.3
38565.5
48032.5
53872
57158
58630.3
83620.4
83084.3
83150.3
81860.5
81237
80827
80707.6
3310.92
24743.2
38835.4
48246.3
53921
57241.6
58739.9
83618.1
83105.3
83121
82009.4
82152.5
81100.9
81051.8
2348.91
25762.4
39438.4
48347.6
54071.4
57291.8
58792
83587.5
83086.9
83106.6
82911.8
82360.4
81386
81532.9
2344.43
24240.2
39525.7
48450.5
54079.5
57320.3
58799.8
83561.3
83051.7
83073.2
82905.6
82364
81425.9
81639.5
2242.8
23838.8
39125.6
48329.7
54049.2
57286.1
58788.8
83507.4
82976.8
83042.5
81933.5
82143.3
81151.4
81197.8
2295.28
23817
38734.5
48130.4
53980.5
57229.1
58729.5
83462.5
82788.8
81523.4
81472.9
81117.3
80807.9
80757.3
2300.82
23905.8
38397.9
48014.3
53852.1
57134.9
58606
83423.8
82743.4
81301.8
79234.3
79133.9
77590.4
79570.2
2293.18
24367.5
38863.5
48153.3
53615.1
56953.4
58483.4
83408
82727.5
81306
79043
78709.7
77394.8
79760
2296.29
25463.5
39560.8
47800.1
53447.7
56831.1
58393.3
83399.8
82716.3
81295.4
79020.1
78663.6
77390.3
79826
2292.96
25531.5
39374
47677.4
53361.5
56756.8
58334
83388.9
82707.1
81286
79006.1
78611
77386.1
79861.2
2291.8
25529.4
39363.2
47610.7
53312
56716
58297.2
79402.7
78195.8
75654.1
71174.6
68768.8
60891
56411.4
2556.96
2298.39
25026.8
37667.4
45991.4
51695.3
55122.7
56762.7
79354.5
78140.6
75582.9
71078.2
68668.3
60733.8
56165.6
2282.71
2296.51
24827.2
37545.9
45949.6
51648.5
55086.4
56728.2
79290.3
78072.9
75484.1
70914.2
68533.1
60530.9
55955.1
2284.88
2295.79
21222.9
37550.5
45874.2
51589
55045.8
56685.2
79236.2
78023.2
75351.4
70814.3
68405.8
60320.4
55844.8
3073.87
2300.35
21580.5
34891.7
45852.8
51537.9
55019.4
56654.9
79219.4
77998.2
75296.2
73795.3
68161.7
63313.2
57812.1
2302.77
2290.13
19490.1
33577.3
44159.7
51495.1
55039.6
56647
79222.5
78020.9
77252.9
73741.8
70282.6
64895
58178.8
2872.87
2351.33
18927.9
32762.1
43994.6
50471.2
54989.6
56658.4
79215.8
78023.1
77264
73742.7
71362.6
65474.5
59136.8
2991.49
2178.2
17158.9
32318.3
43111
50451.3
54955.5
56647.2
79184.6
78011.1
77254.7
75155.8
71620.1
66339.8
61291.2
4456.35
2282.84
14658.8
31813.8
42696.2
50441.2
54973.6
56652.1
79154.2
77967.9
77224.3
75152
71637.4
66484.9
62106.8
5995.86
2311.54
16314.9
31978.8
42738.3
50490.2
55000.7
56680.5
79099.9
77903.8
77188.2
73674.3
71382.8
65631.8
59598.5
3039.88
2257.43
18274
32560.5
43281.5
50572.2
55056
56708.1
79020.9
77804.6
75118.8
73685.4
70195.7
64906.2
58288.6
2309.65
2306.08
19285.4
32969.5
44218.5
51601.3
55101.9
56689.9
78956.5
77741.4
75060.9
70535.7
68103.7
60146.4
55796.1
2691.37
2293.03
20327.2
34981.7
45911.2
51584.9
55031.8
56662.4
78935.2
77707.5
75102.3
70513.2
68090.8
60141.3
55670.2
3008.84
2296.75
21293.2
37432
45810.7
51542.9
55006.6
56649.8
78927.5
77698.3
75110.7
70569.6
68157.8
60220
55695.7
2292.73
2296.44
24403.4
37297
45783.2
51522.7
54987.4
56639.7
78918.7
77692.9
75113.5
70580.3
68170
60279.9
55755.6
2292.57
2294.87
24565.3
37353.2
45752.4
51509.4
54971.6
56626
76608
75010.8
71604.1
65537.2
54992.3
44748.1
19300
2305.65
2303.86
27718.8
39837.8
47635.9
52873.1
55997.7
57488.1
76539.2
74927.6
71478.4
65347.8
54685
44372.5
19106.4
2271.7
2303.16
27382.6
39591.1
47501.2
52762.4
55916.3
57417.5
76440.5
74815.4
71316.2
65131.3
54305.3
43822.7
18800.9
2258.41
2302.62
22176.1
39241.4
47277.5
52586
55786.1
57304.8
76339.9
74719.5
71118
64905.9
58604.2
43349.2
18750.6
2273.17
2301.56
22122.9
35084.3
46951.5
52350.7
55621.3
57167.2
76277.3
74661.3
71051
67442.7
58527.5
47235.3
25198.4
2289.32
2817.1
18416.3
32737.4
43942.3
52093.1
55484.3
57036.9
76252.7
74622.9
72703.1
67439.5
60869.8
49372.4
26243.6
2293.02
2340.05
16573.2
30957.6
43429.5
50097.3
55339.5
56946.7
76217.8
74587.5
72752.9
67475.4
62125.1
50219.4
27572.6
2284.85
2274.2
14289.6
29983.8
41765
49930.5
55253.8
56883.3
76179.5
74564
72762.3
68920.2
62417.4
51700
36229.8
2304.99
2212.36
11856.3
29302.3
40972.9
49903.9
55265.4
56890.6
76151.3
74525.1
72730.8
68907
62433.9
51862.6
37229.4
18795.7
2273.64
12720.2
29719.1
41166.3
50039.7
55352.9
56958.1
76117.2
74488.5
72681.4
67386.1
62137.9
50403.5
28099.6
2300.63
2295.7
16817.7
31018.4
42341.8
50273.6
55499.2
57068.1
76060.8
74443.9
70836.2
67369.5
60747
49382.8
26316.2
2298.26
2283.74
18591.1
32006.8
44133.8
52344.5
55650.4
57166.1
76031.9
74400.6
70771.8
64539.7
58304.6
43162.9
20270.3
2285.2
2294.37
20064
35223.9
47137.3
52493.8
55726.9
57257.4
76047.2
74399.2
70859.6
64603.5
53727
43235.4
18556.3
2276.28
2302.9
21899.8
39128.8
47255.8
52599.3
55809.3
57331.3
76064.9
74422.5
70909.6
64682.2
53923.6
43525.5
18576.9
2286.71
2302.71
26701.7
39266.2
47312.7
52661.4
55860.1
57378.8
76070.5
74434.7
70946.2
64738.8
54030.9
43743.5
18692.6
2273.11
2301.84
27032.9
39396.8
47352.5
52695.9
55879.8
57395.5
76063.3
74457.4
71010.5
64990.2
54618
42242.7
7637.51
2297.03
10252.1
36013.8
45991
52476.3
56718.9
59181
60353.4
75965.5
74335.4
70812.9
64629.4
54090.6
40973.7
6297.71
2232.62
9764.54
35373
45605.3
52234.7
56538.1
59054.1
60245.7
75822.5
74165.7
70552.8
64258.8
53939
39767.1
7710.54
2267.32
2509.08
27248.5
45098.1
51869.4
56245.7
58844
60067.8
75668.6
74004.2
70303.3
63972.1
55708.4
38733.5
8779.16
2285.77
2310.02
26712.3
39665.5
51343.4
55855.2
58568.2
59843.8
75556.6
73904.2
70242.3
65269.5
55267.2
41041.7
18281.2
2287.37
2815.62
20875.9
36194.2
47420.5
55480.6
58317.8
59624.1
75497.7
73859.1
71049.9
65133.1
56712.1
42323
18622.4
2291.49
2312.73
17686
33514.7
46693.4
52824.5
58133.8
59466.9
75433.3
73795
71037.4
65103.3
57505.4
42810.9
20045.8
2339.36
2439.65
14670.6
32287.4
44447
52563.1
58019.7
59371.1
75389.4
73757.7
71039.8
66080
57600.3
43230.3
20056.8
2295.84
2279.27
13337.8
31788.4
43422.3
52545.2
58037.8
59383.7
75363.5
73727
71016.4
66057.7
57593.9
43233.6
19559.2
2223.1
2296.64
13662.5
32438.2
43747.2
52746.4
58169.1
59482.5
75353.5
73710.5
70964
65037.9
57477.8
42916.9
21213.5
2314.95
2283.47
19270.7
34082.7
45363.9
53084.9
58374.5
59651.9
75328.1
73665.9
69982.1
65080.3
56563.5
42296.9
18757.4
2294.61
2302.11
21512.1
35368
47795.3
55869.4
58579.7
59832.4
75344.1
73657
69900.1
63485.9
55049.2
38473.1
17472.7
2285.45
2301
23500.7
39740.1
51669
56104.8
58760.6
60012.2
75406
73709.9
70017.6
63572.3
53021.4
38512.6
7844.31
2293.57
2314.13
26392.4
44942.7
51889.6
56322.4
58937.1
60165.8
75461.8
73780.1
70145.2
63768.4
52963.3
39864.7
5627.28
2248.39
6120.04
34119.7
45082.1
52004.1
56468.2
59053.6
60271.1
75490.6
73819.6
70230.1
63909.9
53131.3
40329.1
5611.36
2230.02
8200.12
34593.2
45368.3
52131.4
56557.8
59111.1
60319.9
77947.6
76825.1
74472
70714.6
63048.3
54454.6
27469.3
2405.32
40477.5
53473.4
56801
60535.6
62856.7
64206.8
64883.7
77820
76654.4
74176.6
70061.9
61468
52040
6997.52
2328.46
35986.7
52237.5
56124.4
60150.5
62607.6
64040.7
64744.8
77634
76424.2
73819.5
69377.5
62759.1
48424.1
17535.7
2454.22
18216.5
41127.9
55762.2
59617.5
62220.9
63772.9
64517.2
77428.8
76169.7
73392
68730.7
60978.6
45977
16871.7
2299.91
9673.16
38220.2
49152.5
58951.6
61695.4
63419.7
64230.7
77269.2
75984.2
73186.8
68253.3
59655.1
45301.1
21234.3
2305.5
6408.65
29134.3
44837.9
54473.2
61301.3
63103.2
63956.7
77176.4
75901
72905.9
67773.2
59438.7
44961.1
20585.7
2285.49
2293.12
25343.7
41615.1
53760.3
58270.4
62923.6
63769.1
77088.9
75804.9
72761.8
67596.9
59411.8
44629.8
20764.3
2293.11
2103.23
22421.4
40376
51251.7
58026.7
62805.3
63654.9
77044.5
75760.3
72728.4
67793.2
59271.7
44357.3
19155.1
2252.47
2262.04
22970.3
40246.1
50157.2
58058.4
62830.4
63671.6
77021.9
75736.5
72714.9
67772
59248.3
44325.2
18932.7
2282.71
2071.27
24309.5
41170.6
50577.2
58280.5
62981
63792
77036.6
75753.1
72711.1
67568
59345.3
44644.4
21647.1
2244.5
14525.7
28434
42747.8
52366.5
58635.9
63215.5
64001.6
77048.1
75745.1
72903.5
67768.1
59303.1
44848.5
20401.6
2479.83
3158.65
30221
43991.8
55106.3
61790.6
63444.4
64232.6
77114.9
75823.4
72969
68170.7
59617.8
44483.4
19880.5
2326.2
2357.5
33143.3
49257.3
59411.9
62054.3
63698.3
64476.7
77228.8
75965.3
73237.4
68535.6
61359.3
45632.4
14979.5
2319.49
16517.2
38814.7
55566.3
59699.4
62376.2
63949.3
64697.4
77328.6
76092.9
73454.1
69030.2
59761.6
49603.5
2342.68
2321.93
32569.6
51009.7
55483.1
59934.2
62604
64119.8
64853.1
77383.8
76168.6
73598.3
69337.2
60148.3
50540.5
2465.19
2319.09
32182
51377.6
55846.4
60134
62746.2
64212.6
64931.8
81711.2
81410.4
80914.1
81390
81940.2
92011.2
133777
139321
96709.6
78263.5
71914.1
70980.5
70440.5
70368.1
70430.9
81563.4
81198.6
80555
80655.9
80169.6
91279.7
137089
122080
92799.9
76988.8
71016.6
70495.1
70147.3
70174.5
70270.8
81347.2
80909.2
80106.5
79057.3
79135.3
73946.7
82383.7
73172.7
66171.8
66100.3
69794.8
69549.4
69674.9
69861.5
70006.7
81099
80566.2
79448.7
77905.7
73044
66850
53112.1
20926.5
35927.8
60901.4
64066.4
68583.5
69006.2
69445.9
69669
80902
80303.8
79072.3
75437.7
71106.7
61169.7
38006.5
2261.17
15573
48315.7
59320.2
64723.5
68524.4
69071.6
69352.2
80793.6
80186
77666.4
74810.6
68939.8
58033.6
33491.2
2272.66
80651.7
46232.2
56068.3
64075.7
65813.2
68820.8
69147.5
80701.5
80090.6
77471.3
74664.3
68125.7
56909.1
32039.9
2265.91
2295.65
41578.6
55143.3
61682.6
65607.7
68683.1
69015.6
80666.9
80059.6
77446.6
73931.3
67969.9
56646.7
31674.7
2248.04
2874.58
42502
55379.6
60637.7
65678.4
68704.9
69031
80645.5
80030.2
77430.6
73899.9
67921.4
56599.6
31418.3
2295.77
10435.9
45975.4
56542
61065.1
65872.1
68856.8
69162.8
80677.9
80062.2
77436.5
74612.7
68043.4
56936.4
31818.1
2260.75
17951.7
49319.3
57901.8
62806.4
66191.7
69128.8
69407.9
80720.8
80106
78828.7
74807.5
68907.6
58073.8
33508.6
2298.46
23086.4
50381.8
58818.3
65419
69060.8
69470.5
69684.1
80841.1
80279.1
79094.1
77422.7
71242.4
63550
37524.1
2282.96
19362.5
54144.3
64264.8
69206
69493
69815.9
69996.2
81011
80519.6
79582.4
78232.5
77588
67088.1
53753.6
42649
47804.9
62280.1
69838.5
69804.3
69958
70146.6
70283.6
81156.3
80727.3
79927.2
79733.1
78215.3
87836.3
124204
99116.3
86721.3
75693.2
70501.1
70476.8
70292.4
70374.7
70487.2
81236
80846.9
80141.9
80321.7
79208.1
90190.9
133819
107616
89394.7
76742.8
70962.3
70758.3
70481.2
70498.3
70592
86179.6
86641.4
87612.8
90963.8
96321.6
103072
126345
129636
108422
93882
84978.5
80610.9
77833.3
76626.5
76148.5
86048.2
86456.9
87360.9
90666.6
95818.8
103508
133008
137057
110835
93627.1
84448.5
80243.6
77566.8
76432.7
75984.8
85845.2
86147.1
87021.3
89003
94227.1
99348.7
124130
152341
118604
92982.2
83055.9
79194.5
77082.1
76087.3
75701.1
85594.1
85787.7
86308.4
87723.5
88224.5
95810.9
118316
159522
116758
89958.3
80580.7
77955.7
76360.4
75630.1
75327.7
85389.5
85505.9
85782.9
84681.5
85801.1
86780.4
92449.8
135237
89285.4
81455.1
77318.4
75603.9
75675.1
75172.5
74952.4
85281.9
85290.3
83948.6
84019.8
82931.9
81505.1
79446.3
43426.4
31576.9
76326.3
74918.9
74813.1
73838.5
74771.8
74685.2
85195.1
85192.8
83888
83977.7
81865.2
80402.5
72851.2
18107.1
72447.2
77413.8
74614.5
73554.8
73628.6
74574.6
74515.3
85175.4
85180.9
83915.8
83041.6
82242.8
81448.2
74158.2
3201.24
97179.3
80310.7
75160.7
73134.6
73562.3
74572.2
74519.1
85156.2
85148.2
83882.6
82930.7
82000.9
80848.8
74063.1
56968.7
118170
82599.3
75778.2
73348.1
73713.5
74731
74658.6
85207.1
85211.7
83841.6
83821.7
81634
80388.1
76405.9
91935.3
112660
84611.7
76565.3
74218.6
74094.7
75079.2
74954.5
85282.3
85395.8
85657.6
84209.8
83030.6
82059.7
82583.8
82726.5
105065
85097.9
77509.8
75966.9
76202.4
75592.9
75322.9
85443.7
85633.4
86154.9
87560.5
87027.8
92671.6
102262
167527
106563
87752
80965.2
78722.8
76955.7
76082.9
75730.4
85644.1
85927.2
86757.7
88684.6
93867.9
97763.6
126141
165337
122166
93123.3
83721.4
79799.8
77569.5
76508.7
76087.6
85807.5
86204.7
87056.3
90406.7
95341.7
103593
137327
144268
114886
94416.6
84758.1
80692.1
77964.2
76800.8
76333.4
85888.2
86334.2
87214.6
90812.7
95931.6
102921
134303
139343
114687
94613.4
85065.9
80971.8
78151.9
76939.1
76453.8
90047.7
90768.1
91906.8
94541
98578.6
98499.7
99930.1
104700
99769.1
95368.2
90181.3
86358.5
83388.6
81900.9
81188.1
89986.3
90699.2
91897.9
94843.9
99115.6
99428.7
102988
106304
101843
95889.7
90403.6
86302.4
83242.8
81750.2
81045.5
89884.9
90521.9
91979
94563.1
98963.1
102254
107733
117337
107199
98401.6
90068.1
85787.9
82931
81440.4
80782.2
89719.8
90304.6
91627.1
94382.5
96514.1
104277
116575
133649
118854
99881.9
90241.8
85005
82352.4
81002.4
80414.8
89562.7
90097.7
91335.6
92043.9
95947.7
102401
118837
152268
132549
103164
89531.5
83744.3
81646.9
80499.8
80002.7
89456.1
89841.2
89883.6
91671.5
94034.3
100026
117200
170891
140470
102969
88657.2
83042.7
80430.4
79911.8
79642.3
89395.8
89798.1
89890.9
92010.5
94173.6
101535
109352
140201
146984
103748
88785.8
82814.2
80182.6
79683.7
79440.1
89395.1
89806.6
89941.3
91235.3
96226.9
111780
92752.2
85373.7
137489
105262
89852.2
82891.6
80107.9
79642
79428
89377.7
89766.6
89882
91029.4
95303
106387
107300
116264
121862
101558
88562.5
82481.4
80122.9
79818
79575.4
89429.1
89807.2
89831.2
91632.8
93503.6
100019
111959
131633
132726
101661
88194.6
82605
80489.6
80232.8
79921.3
89546.5
90099.2
91356.8
91844.5
94095.3
100333
117349
161198
131864
103409
89520
83938.7
82201.9
80939.4
80401.7
89704.1
90322.4
91733.2
94687.3
96637.3
105630
121011
153822
129886
103245
90878.6
85869.7
83022
81527.4
80884.2
89857.1
90536.3
92095.9
94962.7
99907.7
105143
115045
131266
113859
101496
91449.9
86756.8
83614.4
81993.1
81270.5
89952.8
90735.1
92040.2
95393.5
100464
101781
109722
118127
107461
98343.1
91934
87304.9
83912.8
82289.6
81521.2
89981.7
90786.1
91993.5
95138.7
100097
99865.6
105759
114595
106240
97640.3
91792.7
87388.3
84026.2
82411.8
81634.9
92706.4
93272.9
93919.6
94986.4
96976
96947
94991.2
100269
96092.3
93907.5
91253.2
88996.9
86888
85750.6
85102.4
92726.9
93318.3
94045.8
95423.4
97644.8
97153
96706.1
97555.5
96765.9
94355.7
91633.3
89073.8
86844.9
85657.4
84999.6
92777.9
93339.3
94447
96057.3