/*--------------------------------*- C++ -*----------------------------------*\
| =========                 |                                                 |
| \\      /  F ield         | OpenFOAM: The Open Source CFD Toolbox           |
|  \\    /   O peration     | Version:  v2012                                 |
|   \\  /    A nd           | Website:  www.openfoam.com                      |
|    \\/     M anipulation  |                                                 |
\*---------------------------------------------------------------------------*/
FoamFile
{
    version     2.0;
    format      ascii;
    class       volScalarField;
    location    "0.029";
    object      p_rgh;
}
// * * * * * * * * * * * * * * * * * * * * * * * * * * * * * * * * * * * * * //

dimensions      [1 -1 -2 0 0 0 0];


internalField   nonuniform List<scalar> 
449343
(
106194
106328
106551
106766
106858
106603
105812
104411
102453
100147
97788.8
95653.5
93935
92744.7
92138.2
106199
106334
106558
106774
106868
106614
105825
104427
102472
100169
97812.2
95676
93955.4
92763
92155.4
106209
106345
106571
106790
106885
106633
105848
104455
102506
100211
97856.6
95718.9
93994
92797.5
92187.5
106223
106360
106589
106811
106909
106658
105878
104491
102552
100266
97916.8
95777.1
94046
92843.4
92229.9
106237
106376
106609
106835
106934
106686
105911
104532
102605
100327
97984.9
95842.7
94103.9
92893.8
92276.1
106250
106391
106626
106855
106957
106711
105941
104570
102653
100387
98049.4
95904.5
94157.6
92939.9
92317.9
106258
106400
106638
106870
106972
106729
105962
104597
102689
100431
98095
95949.5
94196
92972.3
92347.1
106260
106403
106642
106874
106976
106735
105967
104602
102697
100446
98112.1
95965.6
94209.6
92983.7
92357.5
106255
106398
106636
106867
106970
106727
105960
104595
102687
100430
98093.7
95948.4
94195.2
92971.6
92346.6
106245
106386
106621
106851
106952
106707
105937
104567
102650
100384
98047
95902.6
94156.2
92938.8
92317.1
106230
106369
106602
106828
106928
106681
105906
104527
102601
100324
97982.1
95840.5
94102.3
92892.6
92275.2
106213
106351
106580
106803
106901
106652
105873
104487
102548
100262
97914
95775
94044.5
92842.4
92229.3
106198
106334
106561
106781
106877
106627
105842
104450
102502
100207
97853.9
95716.9
93992.8
92796.8
92187.1
106187
106322
106547
106764
106859
106607
105819
104422
102467
100166
97809.6
95674.3
93954.5
92762.6
92155.4
106181
106315
106539
106755
106849
106595
105806
104406
102448
100144
97786.3
95651.9
93934.2
92744.4
92138.4
106040
106222
106545
106912
107182
107148
106490
105023
102808
100162
97503.9
95170.3
93342.6
92099.4
91472.5
106046
106228
106552
106922
107193
107160
106504
105041
102831
100189
97532
95196.2
93365.1
92119.1
91490.7
106056
106240
106567
106940
107214
107183
106529
105073
102872
100240
97587.1
95246.5
93408.2
92156.4
91525
106070
106256
106587
106965
107242
107208
106558
105108
102925
100310
97664.3
95317.1
93467.4
92206.7
91570.6
106084
106273
106610
106994
107275
107235
106595
105157
102979
100391
97756.7
95399.9
93534.9
92262.6
91620.7
106098
106290
106631
107021
107305
107267
106628
105204
103047
100473
97847.2
95481.2
93599.3
92314.5
91666.5
106107
106301
106647
107040
107323
107294
106657
105242
103098
100537
97923.7
95543.9
93646.1
92351.7
91698.8
106109
106304
106651
107046
107329
107301
106661
105194
103103
100555
97948.2
95565.2
93662.1
92364.9
91710.2
106104
106298
106644
107037
107320
107291
106654
105239
103095
100535
97921.7
95542.3
93644.9
92350.8
91698.1
106092
106284
106626
107016
107301
107262
106623
105199
103043
100468
97843.6
95478.4
93597.3
92313.1
91665.5
106076
106266
106603
106987
107268
107230
106590
105152
102974
100387
97753
95397
93532.8
92261.2
91619.7
106059
106246
106578
106957
107234
107202
106553
105103
102920
100306
97660.9
95314.5
93465.7
92205.7
91570
106044
106228
106556
106930
107206
107176
106523
105067
102868
100237
97584
95244.4
93406.9
92155.9
91524.8
106033
106215
106540
106911
107184
107153
106498
105036
102826
100185
97529.2
95194.3
93364.2
92119
91491
106026
106208
106532
106901
107172
107140
106484
105018
102804
100158
97501.2
95168.6
93341.9
92099.5
91473
105649
105938
106487
107216
107951
108479
108222
106585
103686
100144
96751.9
93969.1
91905.1
90550.4
89881.2
105654
105944
106496
107228
107967
108495
108239
106608
103717
100183
96790.6
94002.3
91932.1
90573.2
89901.9
105664
105957
106514
107253
107998
108527
108266
106652
103774
100262
96872
94069.4
91985
90616.7
89940.9
105678
105975
106539
107288
108040
108558
108284
106700
103828
100370
96995.4
94169.4
92060.1
90676.6
89993.6
105694
105996
106570
107331
108090
108582
108286
106713
103880
100520
97149.2
94291.6
92149.4
90744.8
90052.5
105708
106016
106602
107373
108146
108615
108317
106785
103998
100669
97325.2
94420.4
92237.1
90809.8
90107
105718
106030
106622
107407
108166
108661
108359
106848
104088
100768
97519.2
94525
92306.3
90857.6
90145.8
105721
106034
106628
107418
108182
108687
108402
106824
104107
100795
97555.4
94555.9
92328.3
90874.7
90159.8
105715
106026
106619
107405
108163
108657
108354
106842
104082
100763
97515.7
94521.9
92304.1
90856.2
90144.9
105702
106010
106596
107368
108141
108610
108310
106778
103990
100662
97318.8
94415.4
92233.8
90807.8
90105.6
105684
105987
106562
107323
108083
108575
108280
106706
103873
100514
97143.7
94287.3
92146.5
90743.2
90051.5
105666
105963
106529
107278
108032
108552
108278
106695
103824
100365
96991.4
94166.3
92058.2
90675.9
89993.6
105650
105943
106501
107241
107988
108519
108260
106647
103769
100258
96868.7
94067.3
91984.2
90617
89941.7
105638
105929
106482
107215
107956
108487
108232
106602
103712
100179
96787.7
94000.8
91932
90574.1
89903.4
105632
105922
106472
107202
107940
108470
108215
106579
103681
100140
96749.3
93968
91905.3
90551.8
89883.2
104890
105336
106226
107535
109130
110719
111613
109648
105245
99824.9
95191
91790
89450.9
87987.1
87285.2
104894
105342
106236
107550
109150
110741
111628
109679
105287
99879.4
95243.7
91831.4
89483
88013.5
87308.7
104903
105354
106257
107584
109199
110793
111665
109754
105389
100021
95365.4
91918.9
89547.1
88064.6
87353.8
104915
105373
106288
107638
109267
110868
111554
109851
105423
100261
95577.3
92056.7
89641
88136.2
87415.4
104930
105396
106330
107703
109362
110878
110877
109663
106319
100613
95862.1
92244.2
89757.7
88219.8
87485.2
104944
105420
106382
107807
109495
110140
110824
109747
106547
102009
96233.7
92453.7
89880.2
88300
87550.4
104954
105438
106415
107859
108852
110222
110868
109830
106678
102206
97613.3
92607.2
89974.5
88360.6
87597.2
104956
105444
106428
107876
108867
110270
110933
109789
106742
102290
97664.3
92648
90011.5
88384.7
87613
104950
105434
106411
107856
108855
110246
110891
109841
106714
102252
97640
92600.2
89970.1
88358.2
87595.8
104937
105413
106375
107801
109489
110166
110832
109776
106597
102115
96219.6
92444
89874.5
88297
87548.9
104918
105385
106320
107694
109354
110869
110883
109695
106443
100603
95853.6
92237.6
89753.8
88218.2
87484.9
104900
105358
106276
107627
109258
110861
111547
109846
105420
100257
95573.1
92053.4
89639.7
88136.7
87416.9
104885
105337
106241
107571
109189
110785
111660
109749
105384
100016
95362.2
91917.5
89547.7
88066.9
87356.9
104874
105323
106218
107535
109138
110731
111621
109673
105281
99874.8
95241.1
91831.2
89484.9
88017
87313.1
104868
105315
106207
107519
109116
110709
111607
109643
105240
99820.8
95189
91790.4
89453.5
87991.3
87290.2
103564
104182
105465
107508
110374
113963
117780
115040
107598
98425.8
92104.6
88221.9
85778.7
84338.1
83676.1
103566
104185
105472
107523
110398
113993
117793
115067
107656
98505.3
92169.6
88267.1
85813.2
84366.7
83701.8
103570
104193
105491
107562
110473
114085
117855
115147
107840
98705
92324.1
88363.5
85883
84423.1
83751.2
103575
104206
105523
107652
110667
114312
115590
115343
109564
99360.3
92684.8
88539
85987.8
84502.6
83819.4
103582
104221
105570
107748
110807
112854
115670
115443
109919
101921
93143.5
88770.9
86125.8
84596.4
83897.4
103590
104248
105648
107986
109981
113113
115817
115535
110185
102520
95625.7
89100.2
86262.6
84692.6
83971.1
103592
104253
105664
107407
110077
113275
114975
115021
110746
103788
96116.7
91122.4
86340.1
84746.1
84020.4
103595
104263
105731
107418
110137
113343
115061
115119
110950
104024
96353.2
91270.2
86480.1
84766.7
84042.6
103587
104248
105659
107400
110115
113319
115020
115093
110878
103973
96265.3
91219.4
86330.7
84741.8
84018.4
103580
104239
105640
107980
109988
113164
114986
114955
110640
102711
95824.3
89080
86252
84688.1
83969.7
103567
104208
105558
107738
110798
112931
115700
115422
109965
102220
93130.4
88760.6
86120.6
84595.4
83898.8
103556
104188
105507
107639
110658
114306
115611
115402
109791
99361.7
92681.7
88536
85987.9
84505.6
83824.1
103546
104171
105471
107546
110461
114080
117849
115224
107834
98698.8
92321.2
88363.9
85886.5
84429
83758.5
103539
104160
105449
107503
110382
113982
117790
115094
107649
98498.8
92167.6
88269.4
85818.8
84374.7
83711
103536
104154
105440
107487
110357
113951
117778
115047
107592
98421.1
92103.9
88225.3
85785.4
84347
83686.3
101424
102164
103763
106505
110883
117784
123368
128654
114848
93586.6
86277.2
82710.8
80634.3
79533.5
79065.2
101420
102161
103763
106513
110907
117813
123380
128674
114887
93663.9
86337.2
82749.2
80666.3
79561.8
79091.2
101413
102156
103764
106524
110952
117898
123409
128720
114959
93773.1
86423.5
82806.4
80728.2
79617.3
79141.5
101403
102154
103781
106606
111355
115757
123551
128910
115155
98545.3
86776.9
82889.8
80818.6
79697.5
79211.6
101388
102139
103778
106699
110173
116083
123942
126671
116822
99697.7
90430
83085.6
80902.7
79779.9
79290.9
101380
102128
103851
106315
110325
115222
122286
125890
117421
102661
91157.6
85838.7
81026.9
79855.4
79365.4
101364
102103
103855
106375
110503
115309
121496
126214
118591
104386
93371.1
86212.9
81081.7
79888.9
79410.7
101354
102080
103864
106451
109875
114839
121601
126452
119109
104924
93695
86403.7
83155.3
79867.7
79424
101359
102097
103851
106415
109865
115310
121579
126383
118975
104808
93601.8
86282.2
81063.3
79882.1
79408.3
101368
102118
103843
106305
110456
115294
121436
126103
118380
104195
93195
86029.3
81007.8
79849.7
79365.1
101370
102121
103764
106690
110184
116183
122139
126756
117226
102313
90800.6
83068
80896.3
79781.3
79296
101377
102130
103760
106591
111347
115816
123647
129001
115321
98929.3
86777.2
82888.8
80822.1
79705.3
79221.9
101381
102126
103737
106502
110937
117891
123455
128761
115050
93762
86421.6
82810.2
80736.9
79629.7
79155.9
101384
102126
103731
106487
110887
117803
123377
128682
114904
93649
86336.4
82755.6
80677.9
79576.9
79108.2
101385
102126
103728
106476
110861
117772
123372
128658
114855
93579.4
86279.6
82719.4
80647.5
79549.9
79083.4
98250.8
98964.5
100560
103470
108443
115293
131799
161718
118556
85657.2
75704.1
74517.7
73851.2
73649.5
73600.1
98238.6
98951.3
100545
103453
108431
115286
131775
161704
118599
85700.2
75734.4
74536.4
73877.7
73675.8
73625.3
98212.8
98919.9
100504
103382
108326
115257
131680
161646
118609
85781.7
75689.5
74545.1
73923.6
73723.7
73673.6
98176.4
98878.1
100451
103190
107728
115625
131686
161498
118486
86080.7
79358.7
74402.2
73979.9
73791
73741.6
98121
98798.7
100284
103277
107766
114760
128741
161361
119806
90583.8
79590.3
77006.3
73961.2
73857.3
73817.3
98066.7
98672.3
100763
103348
107533
114745
127349
156469
125704
93831.5
82723.2
77343.5
76004.1
73897.8
73890.1
98036.2
98636
100768
103359
107576
114346
127270
156645
128368
96034.8
85044.1
79472.7
76140.7
73978.2
73949.8
98002.5
98604.6
100827
103388
107584
114331
127246
156923
131381
97927.4
85813.8
79778.2
76291.8
74010.7
73939.5
98029.5
98629.8
100778
103403
107604
114331
127231
156769
130341
97382.6
85614
79694.7
76194.5
73971
73948.3
98050
98658.4
100772
103330
107587
114343
127253
156475
127392
95315.6
84697.3
79276.3
76054.2
73894.3
73893.9
98096.5
98776.1
100267
103274
107771
114784
127359
156434
125579
93602.6
82522.2
77122.7
73956.2
73864.6
73829.8
98141.6
98845.1
100422
103169
107620
115560
128774
161415
119095
90745.7
79477
74409.2
73991.7
73808.2
73762
98168.9
98878.1
100467
103351
108305
115262
131691
161571
118602
85915.5
75689.3
74556.3
73941.8
73746.9
73699.4
98187.2
98901.5
100499
103415
108403
115282
131750
161676
118506
85710.3
75736.4
74550.3
73899.1
73702.1
73654.1
98195.6
98910.8
100510
103426
108411
115275
131796
161722
118568
85653.4
75713.6
74535.3
73874.8
73677.4
73630.2
93983.4
94413.9
95373.8
97138.7
100053
106776
114213
111894
25165.1
55013.2
60617.8
63862.6
65889.4
67154.1
67729.4
93964.1
94392.2
95346.1
97099.8
100015
106729
114170
111776
25552.4
55040.8
60610
63882
65921.4
67181.7
67755.1
93921.2
94336
95276.5
97029
99901.7
106607
114041
111614
25337.7
55138.7
60635.7
63978.9
65991.7
67235.7
67806.9
93859.7
94246.5
95163.5
96748.9
101183
106169
113734
111353
25557.3
55480
62294.2
64226.9
66125.9
67323.1
67886.9
93770.8
94122.6
94951.4
97887.9
100936
106558
114437
110915
25948.7
59454.1
64424.3
65979.3
66376.2
67466
67988.8
93667.2
94003.6
96087.4
97794.9
101422
106786
114116
110220
28910.3
61864.4
66622.7
66590
67885.8
67663.6
68093.5
93634.9
93963.8
96078
97736.4
101685
106707
113869
109363
45545.7
66775.1
68540.8
68314.5
68072.4
67813.3
68189.9
93612
93931.2
96052.1
98378.8
101691
106674
113722
108560
72395.2
71796.9
69901.8
69429.2
68232.3
67872.1
68208
93628.8
93959.8
96050.8
98370.7
101696
106685
113747
108714
60021.6
69822.3
69419.4
69280
68132.2
67810.5
68194.1
93642
93981.7
96080
97742.4
101692
106734
113923
109514
41830.4
64901.3
67805.9
68012
67922.9
67667.4
68106.8
93738.5
94092.3
94929.3
97828.1
101447
106817
114177
110307
32147.3
61607
66252.3
66169.6
66381.3
67486
68015.1
93811.4
94200.8
95120.4
96720.8
101081
105866
113421
111058
26906.5
57911.8
62416
64246
66154.5
67357.3
67924.2
93859.4
94276.6
95223.9
96983.6
99869.5
106375
113866
111457
25008.6
55194.3
60645.9
64002.8
66025.8
67276.3
67850.4
93891
94320.1
95278.2
97040.2
99966.8
106666
114097
111711
24576.2
55005.4
60621.6
63908
65957.8
67224.6
67801.3
93904.6
94336.2
95298.4
97069.5
99995.6
106732
114190
111842
25443.2
55015.9
60639.5
63893.6
65928
67198.4
67776.8
88893.9
88800.9
88588.1
88257.7
88196.5
92212.4
95950.9
109167
5620.37
33537.5
46744.8
53806.4
58409.8
61089.9
62290.9
88871.9
88775.4
88559.2
88222.3
88171.9
92163.5
95901.6
108967
2202
33560.5
46729.4
53848.7
58449.3
61119
62316.5
88828.1
88722.5
88499.6
88195
88119.4
92047.6
95774.9
108830
4996.31
33746.3
46883.8
54005.9
58544.4
61187.9
62373.3
88770.9
88637.6
88406.6
88245.5
90896.7
91993.7
95530.1
108632
3947.02
34183
47315.8
54434.6
58751.9
61318.1
62472.8
88701.7
88553.5
88398.3
90260.1
90939.2
93827.8
96566.1
108501
6390.26
34640.2
48467
55540.2
59098.3
61539.2
62617.2
88628.4
88554
89967
90215.1
92201.5
94644.4
96439.4
107981
3745.83
36618.9
49939.7
56106.2
60084.5
61781.8
62772
88616.6
88556.1
89898.5
90231.8
92886.6
94629.2
96395.1
107743
2964.28
41105.8
51660.1
57136.1
60334.1
61936.7
62882.4
88599.9
88535.9
89866.6
91223.3
92901.3
94669
96434.2
107672
32611.9
45180.7
52725.8
57748.5
60463.2
62000.6
62913.8
88606.2
88547
89862.5
91217.6
92914.1
94695.1
96484.1
107900
5621.97
41238.2
51989.2
57575.4
60386.8
61941.1
62896.9
88599.5
88531.5
89886.8
90246.5
92905.7
94690.1
96504.9
108075
2331.48
37812.2
50603.7
56785.6
60181.6
61800.7
62803.5
88655
88508.4
88362.1
90193.1
92251.6
94718.1
96548.2
108231
8441.32
35978.6
49423.6
55688
59124.3
61583.1
62667.8
88702.8
88573.1
88348.5
88198.4
90929.9
92136.4
95733.3
108700
3046.69
34509.3
47729.9
54478
58807.5
61379.7
62537.2
88741.3
88637.6
88421.8
88128.9
88062.1
91985.3
95649
108730
4687.49
33935.4
46927.9
54054.4
58604.3
61254.6
62443.3
88768.5
88671.1
88454.4
88122
88082
92057.5
95802.1
108882
2489.27
33727.1
46773.7
53897.1
58508
61185.5
62387.2
88781.5
88686.5
88471.4
88141.1
88087.6
92124.7
95885.3
108981
3377.38
33612
46788.6
53854.8
58467.8
61156.2
62361.7
83682.7
83008.4
81600.4
79332.3
78940
77693
80140.6
2163.65
25561.1
39461.3
47689.6
53371.6
56760.2
58333.7
83661.2
82983.4
81572.4
79304.8
78899.4
77635.7
80076.5
2201.53
25505.8
39440.1
47722.7
53392.8
56776.5
58347.6
83625.8
82947.5
81524.9
79252.9
78883.8
77580.8
79956.7
2206.01
25418.7
39580.8
47808.8
53446.4
56824.1
58383.2
83595.5
82912.2
81466
79386.2
79148.3
77507.4
79781
2226.45
25615.7
38623.3
48122.7
53584.7
56924.7
58455.9
83584.1
82907.9
81627.3
81514.4
79736.9
79673
80534
2239.68
23914.8
38499.3
47968.7
53813.1
57099.1
58571.4
83581.1
83045.1
83106.2
81816.3
81190.4
80779.1
80659.7
3263.99
24695.3
38787.6
48202.2
53876.9
57202.4
58700.6
83598.5
83085.7
83096.5
81984.9
82124.3
81072.7
81023.6
2339.36
25734.2
39410.2
48320.6
54046.9
57272.1
58772.4
83587.5
83086.9
83101.7
82904.4
82351.8
81377.4
81524.3
2336.76
24231.6
39517.1
48441.9
54074.6
57320.3
58799.8
83580.9
83071.3
83087.9
82917.9
82375.1
81437
81650.5
2245.45
23849.8
39136.6
48340.8
54063.9
57305.8
58808.4
83546.6
83016
83076.8
81967.8
82174
81182.1
81228.4
2315.01
23847.6
38765.2
48162.3
54014.8
57268.4
58768.7
83521.4
82847.7
81582.2
81526.9
81168.8
80858.2
80807.5
2349.98
23956.1
38448.2
48068.3
53910.9
57193.8
58664.9
83502.2
82821.8
81380.3
79312.8
79207.5
77664
79641.4
2345.1
24438.6
38937
48231.8
53693.6
57031.8
58561.9
83506.1
82825.6
81404.1
79141.1
78802.9
77488
79850.7
2368.95
25556.7
39658.9
47898.2
53545.8
56929.2
58491.4
83517.6
82834.1
81413.1
79137.8
78776.4
77503.1
79936.3
2377.51
25644.3
39491.7
47795.1
53479.2
56874.5
58451.7
83526.3
82844.5
81423.3
79143.5
78743.4
77518.5
79991.2
2392.25
25661.9
39500.6
47748.1
53449.3
56853.4
58434.5
79265.4
78058.5
75516.8
71037.3
68626.5
60748.7
56266.7
2410.43
2175.73
24889.5
37530.1
45854
51558
54985.4
56625.4
79236.8
78022.9
75465.2
70960.4
68545.7
60611.2
56040.6
2282.56
2197.33
24709.5
37428.2
45831.9
51530.8
54968.7
56610.5
79192.2
77974.8
75386
70816.1
68430.1
60427.9
55849.7
2284.41
2210.45
21119.9
37452.4
45776.1
51490.9
54947.7
56587.1
79157.7
77944.7
75272.9
70735.8
68322.4
60237
55759
3007.25
2235.8
21497.1
34808.3
45774.3
51459.5
54940.9
56576.4
79160.5
77939.4
75237.3
73731.5
68097.9
63247
57744.7
2301.44
2237.49
19422.7
33511.1
44095.9
51436.2
54980.8
56588.2
79183.2
77981.6
77208.8
73697.7
70236
64847.2
58130.9
2841.82
2341.96
18880.1
32714.3
43950.5
50427.1
54950.4
56619.1
79196.1
78003.5
77239.5
73718.2
71334.4
65446.3
59108.6
2970.18
2177.6
17130.7
32290.1
43084
50426.8
54935.9
56627.6
79184.6
78011.1
77249.8
75148.4
71611.5
66331.2
61282.6
4447.16
2281.49
14650.2
31805.2
42687.7
50436.3
54973.6
56652.1
79173.8
77987.5
77239
75164.2
71648.5
66495.9
62117.8
6006.28
2313.87
16325.9
31989.8
42749.3
50504.9
55020.3
56700.1
79139.2
77943.1
77222.5
73708.7
71413.4
65662.5
59629.2
3064.91
2258.97
18304.6
32591.2
43313.4
50606.6
55095.3
56747.4
79079.8
77863.5
75177.7
73739.4
70247.2
64956.5
58338.8
2309.76
2351.83
19335.7
33019.8
44272.5
51660.2
55160.7
56748.8
79034.9
77819.9
75139.4
70614.2
68177.3
60220
55867.3
2728.09
2323.38
20398.3
35055.3
45989.7
51663.4
55110.3
56740.9
79033.3
77805.6
75200.4
70611.3
68184
60234.5
55761
3076.08
2372.79
21386.4
37530.1
45908.8
51641
55104.7
56747.9
79045.2
77816
75228.5
70687.3
68270.6
60332.8
55806
2300.75
2387.22
24521.1
37414.7
45901
51640.4
55105.1
56757.4
79056.1
77830.3
75250.8
70717.6
68302.4
60412.3
55885.6
2295.08
2400.3
24702.6
37490.5
45889.8
51646.8
55108.9
56763.4
76470.7
74873.4
71466.7
65399.8
54854.9
44605.8
19155.3
2286.43
2177.48
27581.4
39700.5
47498.6
52735.8
55860.3
57350.8
76421.5
74809.9
71360.7
65230.1
54567.2
44249.9
18981.3
2271.47
2197.17
27264.8
39473.4
47383.5
52644.7
55798.6
57299.8
76342.4
74717.3
71218.1
65033.2
54207.2
43719.7
18695.4
2258.18
2214.17
22073.1
39143.3
47179.4
52487.9
55688
57206.7
76261.5
74641
71039.5
64827.4
58520.9
43265.8
18664.8
2272.59
2232.67
22039.5
35000.9
46873.1
52272.2
55542.8
57088.8
76218.4
74602.5
70992.1
67378.9
58463.7
47169.1
25131
2288.67
2749.68
18348.9
32671.1
43878.5
52034.2
55425.4
56978
76213.5
74583.6
72658.9
67395.3
60823.2
49324.6
26195.7
2292.78
2338.85
16525.4
30909.8
43385.3
50053.2
55300.3
56907.5
76198.1
74567.9
72728.3
67450.9
62096.9
50191.2
27544.4
2283.94
2273.32
14261.4
29955.6
41738
49906
55234.2
56863.7
76179.5
74564
72757.4
68912.9
62408.8
51691.4
36221.2
2304.78
2212.19
11847.8
29293.7
40964.3
49899
55265.4
56890.6
76170.9
74544.7
72745.6
68919.2
62445
51873.7
37240.4
18806.8
2277.1
12731.2
29730.1
41177.3
50054.4
55372.5
56977.7
76156.4
74527.7
72715.7
67420.4
62168.6
50434.2
28130.3
2301.41
2306.36
16848.3
31049
42373.7
50307.9
55538.4
57107.3
76119.6
74502.8
70895.1
67423.4
60798.5
49433.1
26366.4
2298.41
2311.33
18641.4
32057.1
44187.8
52403.3
55709.3
57225
76110.3
74479.1
70850.3
64618.2
58378.2
43236.5
20341.4
2285.56
2332.55
20135.1
35297.5
47215.8
52572.3
55805.4
57335.9
76145.3
74497.3
70957.7
64701.6
53825.1
43328.5
18647
2276.65
2381.25
21993
39226.9
47353.9
52697.4
55907.4
57429.4
76182.6
74540.3
71027.4
64799.9
54041.3
43638.3
18687.3
2289.07
2398.01
26819.5
39383.9
47430.4
52779.1
55977.8
57496.5
76207.9
74572
71083.5
64876.1
54168.2
43875.9
18822.6
2274.13
2411
27170.2
39534.1
47489.9
52833.3
56017.1
57532.8
75926
74320.1
70873.2
64852.8
54480.6
42105.3
7495.26
2281.39
10114.7
35876.4
45853.7
52339
56581.6
59043.6
60216
75847.8
74217.7
70695.1
64511.7
53972.9
40855.9
6175.08
2232.3
9646.82
35255.3
45487.6
52117
56420.4
58936.4
60128
75724.4
74067.6
70454.7
64160.7
53840.9
39664.1
7607.53
2267
2406.71
27145.5
45000
51771.3
56147.6
58745.9
59969.7
75590.1
73925.7
70224.8
63893.6
55625.1
38650.1
8695.77
2285.12
2232.03
26628.9
39582.1
51264.9
55776.8
58489.7
59765.3
75497.8
73845.4
70183.4
65205.8
55203.4
40975.5
18213.7
2287.05
2748.25
20808.4
36128
47356.7
55421.8
58258.9
59565.2
75458.5
73819.8
71005.7
65089
56665.5
42275.2
18574.6
2290.98
2311.68
17638.2
33466.9
46649.3
52780.3
58094.5
59427.7
75413.7
73775.4
71012.8
65078.8
57477.2
42782.7
20017.6
2314.4
2438.52
14642.4
32259.2
44420.1
52538.6
58000
59351.5
75389.4
73757.7
71034.9
66072.6
57591.8
43221.7
20048.2
2291.04
2278.54
13329.2
31779.8
43413.7
52540.3
58037.8
59383.7
75383.1
73746.6
71031.1
66069.9
57605
43244.7
19570.3
2223.36
2303.59
13673.6
32449.3
43758.3
52761.1
58188.7
59502.1
75392.7
73749.7
70998.3
65072.2
57508.5
42947.5
21244.2
2342.08
2297.06
19301.4
34113.4
45395.8
53119.2
58413.8
59691.1
75386.9
73724.7
70040.9
65134.3
56615
42347.2
18807.7
2295.59
2340.48
21562.3
35418.3
47849.2
55928.3
58638.5
59891.2
75422.6
73735.4
69978.5
63564.4
55122.7
38546.7
17543.9
2285.92
2358.09
23571.8
39813.6
51747.5
56183.2
58839
60090.7
75504.1
73808
70115.7
63670.4
53119.5
38605.8
7937.51
2294.33
2400.59
26485.6
45040.8
51987.7
56420.5
59035.2
60263.9
75579.6
73897.8
70262.9
63886.1
53081
39982.4
5740.1
2249.21
6237.74
34237.5
45199.9
52121.8
56586
59171.4
60388.8
75627.9
73956.9
70367.4
64047.2
53268.7
40466.5
5743.79
2230.45
8337.45
34730.5
45505.6
52268.8
56695.2
59248.5
60457.2
77810.3
76687.7
74334.6
70577.3
62911
54317.2
27332
2280.59
40340.1
53336.1
56663.7
60398.3
62719.3
64069.5
64746.4
77702.3
76536.7
74058.9
69944.1
61350.2
51922.3
6880.15
2275.45
35868.9
52119.7
56006.7
60032.8
62489.9
63923
64627.1
77535.9
76326.1
73721.4
69279.4
62661
48321.1
17432.7
2453.5
18113.5
41024.9
55664.1
59519.4
62122.8
63674.8
64419.1
77350.4
76091.2
73313.5
68652.2
60895.2
45893.6
16788.3
2298.79
9587.33
38136.8
49069.1
58873.1
61616.9
63341.2
64152.2
77210.4
75925.3
73127.9
68189.5
59591.3
45234.9
21166.8
2294.34
6341.21
29066.8
44771.6
54409.4
61242.4
63044.3
63897.8
77137.2
75861.8
72861.7
67729
59392.2
44913.3
20537.9
2268.97
2292.08
25295.8
41567.3
53716.1
58226.2
62884.4
63729.8
77069.2
75785.3
72737.3
67572.4
59383.6
44601.6
20736.1
2292.37
2101.96
22393.2
40347.7
51224.8
58002.1
62785.7
63635.3
77044.5
75760.3
72723.5
67785.9
59263.1
44348.7
19146.5
2252.3
2260.92
22961.8
40237.5
50148.6
58053.5
62830.4
63671.6
77041.5
75756.1
72729.6
67784.2
59259.3
44336.3
18943.8
2283.42
2071.59
24320.6
41181.6
50588.2
58295.2
63000.7
63811.7
77075.8
75792.3
72745.4
67602.4
59376
44675.1
21677.7
2245.55
14556.3
28464.6
42778.5
52398.4
58670.2
63254.8
64040.9
77107
75804
72962.4
67822
59354.6
44898.8
20451.9
2529.99
3208.76
30271.2
44042.1
55160.2
61849.5
63503.3
64291.5
77193.4
75901.8
73047.5
68249.2
59691.4
44556.9
19951.6
2393
2425.83
33214.5
49330.9
59490.4
62132.7
63776.7
64555.2
77326.9
76063.4
73335.5
68633.7
61457.4
45725.5
15072.7
2321.5
16610.4
38907.9
55664.4
59797.5
62474.3
64047.4
64795.5
77446.3
76210.6
73571.8
69148
59879.3
49721.2
2445.92
2362.23
32687.3
51127.4
55600.8
60051.9
62721.8
64237.5
64970.9
77521.1
76306
73735.7
69474.6
60285.7
50677.8
2597.54
2376.28
32319.4
51514.9
55983.7
60271.4
62883.5
64349.9
65069.1
81573.8
81273.1
80776.7
81252.6
81802.8
91873.8
133639
139184
96572.2
78126.2
71776.7
70843.2
70303.1
70230.7
70293.6
81445.7
81080.9
80437.3
80538.2
80051.9
91162
136971
121962
92682.2
76871.1
70898.9
70377.4
70029.6
70056.8
70153
81249.1
80811.1
80008.4
78959.2
79037.2
73843.7
82280.7
73069.7
66068.7
65997.3
69696.7
69451.3
69576.8
69763.4
69908.6
81020.5
80487.7
79370.2
77827.2
72960.6
66766.6
53028.7
20840.7
35842
60818
63983
68505
68927.7
69367.5
69590.5
80843.1
80245
79013.5
75373.9
71043
61103.5
37939
2205.44
15505.6
48248.2
59254
64659.8
68465.6
69012.8
69293.4
80754.4
80146.7
77622.3
74766.5
68893.2
57985.8
33443.3
2266.43
80603.9
46184.3
56020.5
64031.6
65769.1
68781.6
69108.3
80681.9
80070.9
77446.8
74639.8
68097.5
56880.8
32011.7
2265.1
2294.09
41550.4
55115.1
61655.6
65583.1
68663.5
68996
80666.9
80059.6
77441.7
73924
67961.4
56638.1
31666.2
2247.81
2866.91
42493.4
55371
60629.1
65673.5
68704.9
69031
80665.2
80049.8
77445.3
73912.1
67932.5
56610.6
31429.4
2296.88
10447
45986.5
56553
61076.1
65886.8
68876.4
69182.4
80717.1
80101.4
77470.9
74647
68074.1
56967
31848.7
2264.46
17982.4
49349.9
57932.5
62838.3
66226.1
69168.1
69447.2
80779.7
80164.9
78887.5
74861.5
68959.1
58124.1
33558.9
2317
23136.7
50432.1
58868.5
65473
69119.6
69529.4
69743
80919.6
80357.6
79172.6
77501.2
71315.9
63623.5
37595.3
2351.69
19432.4
54215.5
64338.4
69284.5
69571.5
69894.4
70074.7
81109.1
80617.7
79680.5
78330.6
77686.1
67181.3
53846.8
42742.2
47898
62373.3
69936.6
69902.4
70056.1
70244.7
70381.7
81274
80845
80044.9
79850.8
78333.1
87954
124322
99234
86839
75810.9
70618.9
70594.5
70410.1
70492.4
70604.9
81373.3
80984.2
80279.2
80459
79345.4
90328.3
133957
107754
89532
76880.2
71099.6
70895.6
70618.5
70635.6
70729.4
86042.2
86504
87475.4
90826.4
96184.3
102935
126207
129498
108285
93744.6
84841.1
80473.5
77695.9
76489.1
76011.2
85930.5
86339.2
87243.2
90548.9
95701.1
103391
132891
136939
110717
93509.4
84330.8
80125.9
77449.1
76315
75867
85747.1
86049
86923.2
88904.9
94129
99245.7
124027
152238
118501
92879.2
82957.8
79096.4
76984
75989.2
75603
85515.6
85709.2
86229.9
87645
88141.1
95727.5
118233
159436
116672
89874.9
80497.3
77877.2
76282
75551.6
75249.2
85330.7
85447.1
85724
84617.8
85737.4
86714.2
92382.3
135169
89218
81387.7
77252.1
75540.1
75616.3
75113.7
74893.5
85242.7
85251
83904.4
83975.6
82885.3
81457.3
79398.4
43378.6
31529.1
76278.4
74871.1
74768.9
73794.4
74732.5
74645.9
85175.5
85173.2
83863.5
83953.2
81837
80374.3
72823
18079.1
72419
77385.6
74586.3
73527.8
73604
74555
74495.7
85175.4
85180.9
83910.9
83034.2
82234.2
81439.6
74149.6
3193.07
97170.7
80302.1
75152.1
73126
73557.4
74572.2
74519.1
85175.8
85167.8
83897.4
82942.9
82012
80859.8
74074.2
56979.8
118181
82610.4
75789.2
73359.1
73728.2
74750.6
74678.2
85246.3
85250.9
83876
83856
81664.7
80418.8
76436.6
91966
112691
84642.4
76595.9
74250.5
74129
75118.4
74993.7
85341.1
85454.7
85716.5
84263.7
83082.1
82110
82634
82776.8
105116
85148.1
77560.1
76020.8
76261.3
75651.7
75381.8
85522.2
85711.8
86233.4
87639
87101.3
92745.2
102333
167597
106633
87823.1
81038.8
78801.3
77034.2
76161.3
75808.9
85742.2
86025.3
86855.8
88782.7
93966
97856.8
126234
165430
122259
93216.5
83819.5
79897.9
77667.6
76606.8
76185.7
85925.2
86322.4
87174
90524.5
95459.4
103711
137445
144385
115003
94534.3
84875.9
80809.8
78081.9
76918.5
76451.1
86025.6
86471.6
87351.9
90950
96068.9
103058
134440
139480
114824
94750.7
85203.2
81109.2
78289.2
77076.4
76591.1
89910.3
90630.8
91769.5
94403.6
98441.3
98362.4
99792.7
104562
99631.7
95230.9
90044
86221.2
83251.3
81763.5
81050.7
89868.6
90581.5
91780.2
94726.2
98997.9
99311
102870
106186
101725
95772
90285.9
86184.6
83125.1
81632.4
80927.8
89786.8
90423.8
91880.9
94465
98865
102151
107630
117234
107096
98298.6
89970
85689.8
82832.9
81342.3
80684.1
89641.3
90226.1
91548.6
94304
96430.7
104194
116491
133563
118768
99798.5
90158.4
84926.5
82273.9
80923.9
80336.3
89503.8
90038.8
91276.8
91980.2
95883.9
102335
118769
152201
132482
103096
89465.3
83680.5
81588.1
80440.9
79943.8
89416.9
89801.9
89839.5
91627.3
93987.7
99977.9
117152
170844
140422
102921
88609.4
82998.5
80386.3
79872.6
79603.1
89376.2
89778.5
89866.3
91985.9
94145.4
101507
109323
140173
146956
103720
88757.6
82787.3
80158.1
79664.1
79420.5
89395.1
89806.6
89936.4
91227.9
96218.3
111771
92743.6
85365.1
137480
105254
89843.6
82883
80103
79642
79428
89397.3
89786.2
89896.7
91041.6
95314
106398
107311
116275
121873
101569
88573.5
82492.5
80137.6
79837.6
79595.1
89468.4
89846.4
89865.6
91667.2
93534.3
100050
111990
131663
132757
101692
88225.2
82636.9
80523.9
80272.1
79960.6
89605.3
90158
91415.7
91898.5
94146.8
100384
117399
161248
131914
103459
89570.2
83992.7
82260.7
80998.3
80460.6
89782.6
90400.9
91811.7
94765.7
96710.9
105704
121082
153892
129956
103316
90952.2
85948.2
83100.5
81605.8
80962.6
89955.2
90634.4
92194
95060.8
100006
105236
115138
131359
113952
101589
91548
86854.9
83712.5
82091.2
81368.6
90070.5
90852.9
92157.9
95511.2
100582
101899
109840
118244
107578
98460.9
92051.7
87422.6
84030.5
82407.3
81638.9
90119
90923.4
92130.8
95276
100235
100003
105897
114732
106377
97777.6
91930
87525.6
84163.5
82549.2
81772.2
92569
93135.6
93782.3
94849
96838.6
96809.6
94853.9
100132
95955
93770.2
91115.9
88859.6
86750.7
85613.2
84965.1
92609.2
93200.6
93928.1
95305.7
97527.1
97035.3
96588.4
97437.8
96648.1
94238
91515.6
88956.1
86727.2
85539.7
84881.8
92679.8
93241.2
94348.9
95959.2
98510.3
99879.8
102532
105617
101911
96746.6
91935.7
88904.6