/*--------------------------------*- C++ -*----------------------------------*\
| =========                 |                                                 |
| \\      /  F ield         | OpenFOAM: The Open Source CFD Toolbox           |
|  \\    /   O peration     | Version:  v2012                                 |
|   \\  /    A nd           | Website:  www.openfoam.com                      |
|    \\/     M anipulation  |                                                 |
\*---------------------------------------------------------------------------*/
FoamFile
{
    version     2.0;
    format      ascii;
    class       volScalarField;
    location    "0.013";
    object      p;
}
// * * * * * * * * * * * * * * * * * * * * * * * * * * * * * * * * * * * * * //

dimensions      [1 -1 -2 0 0 0 0];


internalField   nonuniform List<scalar> 
449343
(
106578
106713
106938
107155
107248
106995
106206
104805
102846
100541
98184.3
96051.5
94335.6
93147.5
92542.4
106563
106699
106925
107144
107239
106987
106199
104801
102845
100543
98186.8
96052.6
94334.3
93143.9
92537.4
106554
106690
106919
107141
107238
106988
106203
104810
102860
100563
98208.7
96071.9
94348.7
93153.8
92544.8
106546
106685
106917
107142
107242
106993
106214
104825
102884
100594
98244.1
96104.2
94374
93172.6
92560
106540
106680
106916
107145
107247
106999
106224
104843
102911
100630
98284.7
96141.1
94402.5
93193.2
92576.3
106530
106673
106911
107143
107247
107001
106230
104856
102933
100661
98319.3
96171.8
94424.5
93207.4
92586.2
106516
106659
106900
107134
107238
106994
106225
104855
102940
100674
98332.8
96184.2
94429.9
93206.8
92582.4
106494
106638
106879
107113
107217
106972
106200
104828
102914
100655
98316.1
96166.6
94409.9
93184.9
92559.6
106464
106608
106847
107080
107182
106935
106163
104789
102872
100605
98264.3
96116.3
94362.9
93140.6
92516.6
106428
106570
106807
107036
107137
106886
106109
104730
102803
100528
98186.2
96039.4
94293.2
93077.4
92456.9
106389
106528
106761
106987
107085
106831
106049
104661
102724
100439
98092.5
95949.1
94211.6
93003.5
92387.3
106348
106485
106715
106936
107031
106776
105989
104593
102646
100352
97999.2
95858.6
94128.7
92928
92315.9
106310
106445
106672
106889
106982
106725
105933
104532
102576
100274
97916.5
95778
94054.2
92859.3
92250.4
106276
106411
106634
106848
106941
106682
105887
104482
102520
100212
97851.3
95714.3
93994.5
92803.5
92196.8
106249
106383
106605
106818
106910
106650
105853
104445
102480
100169
97807.8
95671.7
93953.9
92764.7
92159.2
106423
106605
106930
107300
107572
107540
106883
105416
103200
100555
97899
95568.8
93744.8
92504.7
91879.5
106409
106592
106919
107291
107564
107534
106879
105415
103204
100562
97906.6
95573.6
93745.7
92502.6
91875.7
106399
106584
106914
107291
107568
107539
106887
105429
103227
100593
97940
95601
93765
92515.5
91885.4
106392
106580
106915
107297
107577
107548
106899
105446
103259
100641
97993.2
95645.9
93797.6
92538.7
91903.8
106386
106577
106918
107305
107591
107554
106915
105472
103288
100697
98058.2
95699.7
93835.3
92564.6
91923.8
106378
106572
106918
107312
107600
107564
106925
105495
103330
100748
98118
95748.6
93867.1
92583.8
91937
106364
106560
106910
107307
107594
107566
106928
105504
103350
100782
98163.3
95777.9
93879.7
92586.9
91935.5
106342
106539
106889
107288
107575
107545
106901
105426
103320
100763
98151.1
95763.3
93860.7
92565.8
91912.8
106312
106508
106856
107252
107537
107505
106863
105436
103277
100708
98089.6
95706
93809.7
92518.5
91867.8
106276
106468
106812
107203
107488
107445
106799
105362
103191
100607
97977.1
95609.6
93730.8
92449.8
91804.3
106235
106424
106762
107146
107426
107382
106734
105282
103091
100496
97857.1
95500.2
93638.4
92369.9
91730.4
106193
106379
106712
107089
107364
107327
106669
105208
103013
100390
97740.4
95393.4
93546.4
92289.1
91655.2
106154
106338
106666
107038
107310
107274
106613
105148
102938
100299
97641.8
95301.3
93465.2
92216.3
91586.6
106120
106302
106627
106995
107264
107228
106565
105093
102875
100226
97566.7
95230.7
93401.5
92157.9
91531
106093
106274
106597
106963
107231
107193
106530
105055
102832
100180
97519.1
95185.2
93359
92117.9
91492.4
106028
106318
106870
107601
108339
108872
108612
106973
104074
100533
97145.9
94369.7
92312.3
90962.9
90296.7
106014
106305
106861
107595
108337
108872
108612
106979
104087
100553
97165.1
94382.4
92318.1
90964.1
90295.5
106005
106299
106860
107603
108352
108889
108627
107010
104130
100615
97226.7
94427.7
92347.8
90983.6
90310.2
105999
106298
106867
107621
108379
108907
108634
107047
104168
100705
97328.7
94502.8
92396.4
91016.2
90335.4
105994
106298
106879
107646
108412
108915
108623
107043
104200
100834
97455.2
94595.2
92455
91053.5
90363.2
105987
106297
106890
107669
108451
108930
108636
107098
104292
100953
97596.2
94688.3
92507.6
91083.8
90383.5
105974
106288
106887
107680
108447
108951
108651
107128
104346
101019
97761.4
94756.4
92539.2
91094.4
90386.2
105952
106268
106868
107665
108437
108948
108664
107083
104324
101006
97754.8
94746.9
92523.5
91075.3
90364.1
105921
106235
106832
107623
108387
108885
108577
107046
104255
100932
97676.3
94674.9
92462.3
91020.9
90314.1
105883
106192
106783
107558
108333
108803
108495
106943
104125
100789
97433.1
94532.2
92358.8
90940.2
90242.6
105840
106143
106721
107483
108242
108733
108427
106832
103976
100608
97231.1
94376.7
92243.4
90847.2
90159.7
105797
106095
106662
107411
108162
108679
108393
106792
103900
100433
97055.8
94233.1
92131.1
90754.7
90076
105758
106051
106609
107348
108091
108618
108347
106719
103829
100306
96913.7
94114.1
92035.6
90673.2
90000.9
105723
106014
106567
107298
108034
108562
108294
106653
103752
100209
96815.1
94028.8
91963.3
90609.2
89940.9
105696
105985
106536
107263
107997
108523
108256
106610
103702
100153
96758.5
93977.1
91917
90566.7
89900.2
105264
105711
106605
107917
109512
111114
111996
110027
105622
100204
95582
92194.1
89867.6
88413.5
87716.8
105249
105699
106597
107915
109517
111123
111995
110044
105647
100243
95616.9
92216.1
89879
88418.5
87718.7
105239
105693
106601
107934
109553
111165
112035
110114
105742
100371
95721.4
92283.3
89920.7
88445.9
87739.4
105232
105693
106616
107975
109611
111232
111916
110213
105771
100604
95915.8
92397.2
89988.3
88489.9
87773
105226
105696
106639
108023
109693
111236
111239
110018
106671
100941
96174.3
92554
90072.2
88540.4
87809.9
105219
105700
106672
108112
109817
110483
111177
110098
106876
102314
96499.9
92722
90155.2
88582.2
87838
105205
105693
106682
108138
109148
110542
111201
110153
106973
102471
97848.8
92829
90201.6
88600.1
87844.6
105183
105676
106671
108129
109138
110561
111234
110073
106998
102510
97849.1
92822.6
90198.4
88585.6
87821.2
105152
105639
106626
108079
109095
110502
111151
110079
106914
102417
97772.9
92730
90112.9
88518.1
87765.4
105113
105592
106562
107996
109692
110385
111046
109962
106743
102227
96285.5
92533.1
89984.2
88422.8
87684.2
105070
105538
106478
107855
109515
111041
111059
109838
106549
100669
95905.1
92301.8
89836
88315.5
87590.6
105028
105487
106407
107760
109386
110993
111657
109929
105458
100291
95606.8
92098.3
89700.1
88209.8
87497.1
104989
105442
106346
107676
109287
110889
111744
109808
105427
100039
95384.5
91947.7
89589.2
88118.4
87414.2
104956
105404
106300
107615
109212
110812
111673
109713
105305
99888.3
95252.5
91846.4
89508.1
88048.3
87349.2
104929
105376
106268
107577
109168
110766
111641
109665
105250
99820.6
95185.4
91788.6
89458.2
88002.9
87306.1
103932
104551
105837
107884
110751
114352
118149
115413
107943
98782.7
92486.9
88629.6
86209.5
84785.9
84133
103915
104536
105827
107884
110763
114374
118156
115431
107992
98849.5
92536.3
88656.8
86224
84793.6
84137.2
103900
104526
105830
107910
110829
114463
118226
115511
108170
99041.3
92678.1
88736.3
86272.8
84826.6
84162.6
103886
104521
105848
107993
111027
114689
115978
115720
109932
99713.7
93028.7
88890.2
86352.5
84878.8
84202.5
103872
104516
105877
108074
111155
113230
116064
115835
110285
102270
93460.7
89088.5
86453.6
84936.4
84245.4
103859
104523
105939
108301
110321
113490
116230
115948
110558
102837
95911.2
89368.7
86541.8
84989.8
84277.9
103836
104502
105930
107699
110400
113642
115368
115425
111114
104081
96351.4
91347
86553.5
84993.7
84281.3
103815
104488
105974
107691
110436
113684
115428
115484
111271
104258
96518.5
91439.4
86652.3
84969.8
84259.6
103782
104447
105873
107642
110381
113618
115338
115390
111115
104124
96358.7
91329.7
86445.7
84898.9
84192.7
103750
104412
105825
108181
110212
113407
115243
115177
110788
102768
95865.2
89127.7
86336.9
84808.6
84107.4
103712
104355
105712
107902
110969
113125
115883
115550
110012
102207
93110
88781.4
86182.3
84686.9
84005.9
103677
104311
105635
107774
110797
114436
115744
115493
109817
99329.1
92662.3
88548.9
86033.3
84574.6
83905.8
103645
104270
105572
107649
110561
114184
117922
115279
107826
98677.2
92308.2
88371.4
85916.4
84477.6
83817.7
103616
104236
105527
107582
110457
114064
117838
115136
107650
98488.2
92155.1
88266.9
85833.2
84404.4
83749.5
103592
104210
105496
107542
110407
114006
117800
115073
107586
98406.9
92082.4
88209.1
85783
84357.8
83704.8
101784
102523
104123
106870
111247
118146
123725
128988
115142
93898.6
86644.9
83125.2
81087.8
80014.9
79561.4
101761
102502
104107
106865
111263
118172
123733
129000
115164
93955
86685.9
83144
81099.8
80023
79566.8
101735
102480
104093
106864
111303
118266
123779
129068
115249
94078.4
86774.8
83191.1
81141.9
80056
79594.1
101706
102461
104098
106941
111730
116151
123956
129302
115491
98880.4
87120
83257.4
81211.6
80110.2
79636.6
101670
102424
104076
107030
110541
116502
124411
127131
117231
100059
90753.7
83409.1
81249.8
80154.9
79679
101640
102392
104133
106628
110692
115647
122799
126422
117891
103022
91437.6
86112.1
81308.1
80178.3
79706.3
101599
102342
104114
106671
110862
115742
122031
126821
119126
104751
93611
86412.9
81303.3
80160.1
79701.4
101562
102291
104098
106717
110198
115242
122135
127062
119625
105239
93839.8
86517.1
83307.7
80082.8
79666.7
101542
102284
104053
106653
110154
115676
122049
126877
119310
104957
93635
86321.6
81157.7
80047.1
79600.7
101527
102279
104018
106508
110707
115601
121803
126436
118509
104140
93132.4
86010.8
81058.6
79972.5
79517.4
101505
102258
103907
106856
110388
116412
122402
126932
117194
102134
90665
83021.6
80933.2
79876.1
79416.7
101491
102245
103881
106720
111501
115985
123798
129073
115235
98781.7
86675.2
82860.7
80855
79778.3
79316.4
101473
102218
103831
106600
111035
117988
123540
128807
114987
93678
86365.7
82793
80757.4
79683
79227.3
101455
102197
103802
106561
110958
117864
123431
128711
114881
93601.2
86287.1
82732
80686.5
79612.4
79158.5
101436
102176
103778
106526
110905
117805
123395
128677
114860
93561.5
86235.7
82689.4
80642
79566.9
79113.5
98601.3
99311.7
100903
103812
108790
115662
132182
161991
118710
85917.1
76069.9
74952.9
74344.2
74184.8
74158
98571
99281.2
100872
103783
108771
115648
132159
161970
118607
85878.3
76058.3
74944.4
74350.4
74192.4
74164.2
98526.3
99231.5
100816
103705
108664
115630
132098
161960
118641
85968.9
76046.9
74945.5
74377
74220.8
74192.4
98471.7
99172.6
100751
103498
108076
116031
132163
161929
118681
86365.3
79693.8
74810.1
74418
74262.9
74235.7
98392.7
99070.6
100561
103586
108120
115196
129299
161983
120195
90955
79916.8
77325.5
74349.5
74295.7
74276.6
98312.2
98916.2
101028
103640
107884
115221
128019
157346
126222
94266.2
82991.4
77594.3
76291.6
74273.5
74294.3
98254.6
98853.4
101007
103625
107915
114832
128061
157903
129209
96582.4
85265.6
79621.9
76383.2
74308.2
74307.6
98195.9
98795
101038
103626
107899
114811
128089
158392
132563
98440.1
85932.1
79817.7
76439.3
74283
74249.5
98197.1
98796.3
100963
103611
107884
114767
128001
158014
130594
97477.6
85561.9
79628.7
76271.1
74186.4
74196.5
98194
98797.5
100929
103508
107825
114707
127864
157328
127060
94954.4
84454.3
79136.2
76075.9
74053.7
74092.8
98220.1
98898.5
100389
103423
107965
115071
127798
156924
125145
93067.1
82153.6
76979
73988.7
73987.9
73991.3
98247.8
98949.1
100528
103277
107764
115761
129039
161640
118596
90296.8
79217.6
74355.2
74025.1
73904.8
73892.9
98253.6
98960.6
100548
103440
108403
115390
131860
161643
118333
85662.7
75600.1
74520.9
73964.6
73823.8
73803.5
98253.5
98965.7
100561
103477
108472
115370
131850
161667
118353
85588.3
75638.9
74506.2
73912.1
73758.8
73734.1
98241.6
98954.3
100550
103466
108451
115328
131847
161680
118586
85653
75653.3
74497.2
73875.8
73714.9
73688.6
94328.3
94749.7
95694.7
97448.9
100364
107119
114613
112411
26754
55391
61022.4
64344.2
66447.6
67773.2
68381.2
94291.3
94710.2
95651.2
97394.5
100317
107067
114571
112311
24520.4
55160.9
60930.5
64334.8
66461.1
67784.7
68391.3
94231.1
94638.2
95568.8
97319
100198
106956
114472
112218
24416.5
55232.2
60986.9
64375
66514.8
67827.8
68429.8
94150
94527.8
95431.7
97013.5
101490
106536
114224
112088
25484
55721.9
62629.6
64695.2
66619.7
67893.8
68492.4
94037
94380.6
95198
98154.6
101232
106950
114989
111883
26348.6
59919.4
64751.1
66327.5
66890.9
68015.1
68570.9
93905.5
94229.7
96316.8
98023.4
101701
107184
114788
111499
29465.2
62323.2
66835.5
66855.5
68242.1
68173.4
68636.5
93841
94156.1
96268
97923
101936
107105
114651
111121
52823.4
66920.6
68528.8
68419.4
68381.6
68263.2
68685.3
93791.1
94094.6
96206.6
98544.7
101905
107050
114557
110718
75921.6
71107.5
69661.5
69393.5
68464.3
68272.1
68649.4
93778
94093.5
96176.1
98506.6
101875
107018
114526
110783
64057.5
69450.3
69119.4
69159.6
68290.5
68137.2
68569.7
93779.4
94104.8
96188
97843.6
101844
107016
114562
111121
35858.6
63735.6
67353
67848.3
68009.5
67937.5
68421.9
93852.7
94197.8
95016.9
97921.8
101577
107047
114659
111432
26497.3
60267.7
65674.7
66023.2
66520.7
67696.3
68271.9
93911.3
94291.6
95201.2
96792.7
101191
106040
113754
111804
24744.8
57050.8
62063
64196.3
66202.2
67516.6
68133.3
93942.1
94352.6
95290.4
97052.1
99945
106505
114089
111896
24267.5
54808.8
60478.2
63927.7
66076.1
67409.9
68020.9
93956
94378.8
95328.1
97084.6
100024
106750
114237
111964
24232.8
54817.8
60480.5
63858.5
65994.4
67327.3
67938.9
93950.1
94375.6
95329.5
97097.3
100029
106782
114270
111982
25928.7
55059
60568.7
63855.4
65952
67278.6
67888.6
89243
89128.5
88878.9
88508.7
88422.2
92470.5
96254.9
109482
13932
34184.9
47218.2
54353.7
59061.9
61830.1
63077.9
89205.8
89088.2
88835.7
88460.1
88388.4
92413
96201.3
109276
11660.2
33912.7
47137.5
54373.3
59088.9
61849.2
63094.9
89148.1
89022.5
88764.9
88426.1
88332.7
92296.6
96086.6
109174
9094.17
34020.9
47270.9
54497.3
59185
61921.5
63153.1
89073.6
88919.8
88657.6
88456.8
91117
92221.9
95852.6
109030
2401.12
34441.1
47665.9
54969.1
59379.1
62055.2
63255.6
88980
88807.3
88600.5
90461.8
91114.5
94048.6
96900.3
108994
5781.4
34952.1
48758.3
55995.3
59752
62274.3
63394.7
88876
88773.8
90155.5
90353.9
92325.8
94813.4
96737.6
108570
2178.7
36689.3
50037.5
56453.8
60621.5
62482.3
63533.3
88828.3
88736.9
90029.4
90300.9
92936.6
94698.2
96612.7
108435
5889.61
39741.3
51382.6
57325
60811.6
62577.9
63597.7
88782
88683.8
89950.8
91243.4
92870.5
94631
96537.2
108314
72546.9
42518
52238.8
57858.7
60853.1
62590.2
63574.2
88757.7
88667
89915.1
91206.8
92843.8
94606.8
96518.1
108338
14638
40518.1
51733.2
57651.6
60707.1
62449.4
63481
88735.7
88635.4
89924.7
90234.1
92845.9
94630.1
96558.1
108411
5928.53
37069.5
50320.7
56782.6
60443.8
62235.7
63310.9
88776.1
88605.9
88404.3
90190.3
92227.8
94718.4
96650.5
108512
5848.95
34876.4
48986.6
55652.8
59369.4
61946.9
63089.5
88811.5
88661.8
88409.2
88228.3
90947.9
92185.9
95854.8
108907
4275.41
33805.4
47416.8
54487.3
58948.5
61664.3
62882.1
88832.8
88712.3
88466.5
88149.8
88086.7
92043.8
95773.9
108870
4230.82
33549.2
46743.3
54009.6
58724.9
61482.8
62725.3
88842.5
88730.6
88490.8
88138.2
88097.1
92110.1
95901.7
108964
4509.91
33445.5
46607.9
53862.9
58593.5
61366.6
62619.7
88836
88727.4
88491.1
88144.2
88087.7
92156.7
95951.4
109004
2337.98
33384.6
46635.3
53806.5
58529.5
61306.8
62560.1
84058.3
83342.6
81858.6
79498.9
79078.7
77803.2
80283.8
2307.23
26022
39870.4
48276.9
54139.4
57661.4
59304.3
84026.4
83308.5
81822.7
79462.4
79029.6
77743.3
80217.9
2304.75
26002.5
39851.6
48323.8
54166.8
57682.8
59323
83985.2
83267.9
81772.4
79415.4
79016.9
77690.4
80101.6
2303.84
25796.1
40011.1
48437
54257.1
57759.5
59384.3
83945.8
83223.6
81711.3
79539.6
79275.2
77587.1
79901.7
2295.38
25903.8
39050.6
48806.3
54425.1
57902.6
59491.9
83912.5
83191.2
81815.6
81656.3
79803.3
79680.7
80569.8
2291.08
23728
38794.7
48607.5
54740.8
58116
59635.2
83877.3
83284.8
83267.7
81878.5
81135.3
80640
80486
2298.49
24335.3
39039.5
48885.8
54722.5
58238.4
59777.5
83851.9
83269
83217.2
81939.7
81902.9
80641
80444.5
2288.07
25246.6
39689
48964.8
54895.2
58284.9
59820.4
83805.4
83227.6
83169.6
82769
81969.1
80621
80422.5
2331.88
25330.4
40017.8
49069
54896.8
58279.9
59794.3
83769.4
83187
83124.8
82745.8
81937.6
80592.2
80400.1
5114.34
25272.9
39780.9
48932.4
54796.3
58166.8
59708.6
83714.9
83124.9
83098.7
81824.4
81811.6
80564.9
80396.5
2295.81
24503.6
39136.4
48611.7
54603.6
58009.1
59558.3
83678
82958.8
81589.8
81453.1
80949.9
80525
80427.5
2297.21
23724.7
38450.3
48334.8
54393.1
57795
59328.5
83647.5
82929.3
81428.4
79288
79120.7
77599.5
79563.1
2293.25
24041.9
38764.8
48390.5
54008.2
57509.2
59110.6
83630.1
82918.3
81437.4
79115
78760.4
77480
79894.1
2294.04
25222.8
39493.9
47908.1
53773.8
57304.2
58940.7
83621.1
82909.4
81439.6
79114.8
78747.8
77507.3
80003.3
2294.84
25274.7
39282
47771.6
53634.2
57174
58825.4
83608.1
82899
81431.3
79106.6
78699.4
77513
80045.7
2298.55
25315.7
39241.9
47671
53562.5
57106.4
58760.4
79707.9
78430.3
75751
71084
68589.7
60616.9
56144
3383.03
2294.56
25179.2
37640
46452.4
52460.4
56093.2
57838.3
79678.2
78397
75709.3
71027.5
68523.6
60512.9
55978.7
2810.43
2295.79
25258.6
37563.3
46483.6
52462.8
56104.3
57846.8
79643.6
78363.2
75651.3
70920.1
68445.3
60368.1
55824.6
2296.12
2299.29
21478.6
37848.6
46514.4
52511.8
56152.8
57884.8
79618.3
78344.5
75557.9
70859.2
68354.8
60180.1
55724.1
2302.67
2303.97
21572.6
35277.7
46674.9
52592.3
56247.7
57954.3
79613
78326.5
75502.6
73874.1
68069.7
63133.1
57608.1
2297.55
2295.59
19346.8
34092
45071.3
52745.6
56399.7
58044
79607.1
78325.7
77457.2
73733.5
70081.8
64478.8
57643.9
2919.88
2262.92
19443.7
33635.5
45174.1
51731.5
56459.8
58147.9
79575.3
78287.8
77412.1
73590.4
70939.1
64480.1
57707.6
2629.12
2291.84
19492.1
33828.3
44462.8
51814.7
56457.7
58151.8
79520.3
78241
77346.8
74963.4
70889.2
64484.1
57796.9
7701.54
2314.79
19067.6
33898.4
44146.5
51818.2
56437.6
58122.7
79474.6
78185
77297.9
74928.9
70838.6
64429.3
57724.9
2378.11
2298.54
19649.5
33886.1
44084.5
51751.6
56352.2
58047.6
79411.6
78128.2
77282.2
73465.5
70822.9
64368.3
57659.8
2271.46
2304.85
19704
33695.9
44285.4
51617.9
56241.4
57932.6
79333.4
78044.6
75216.7
73635.8
69912.6
64351.1
57643.4
3188.63
2299.94
19381.7
33399
44837
52424.9
56086.6
57741.6
79267.5
77993.7
75211.5
70539.3
68013.5
60057.7
55809.1
3257.02
2321.53
19986.9
34972.9
46256.5
52176
55853
57567.8
79231.6
77953.6
75251.3
70553.2
68072
60162.9
55866.9
2949.94
2296.48
20853.4
37372.4
45978.5
52016.3
55684.4
57427.2
79213.6
77935.7
75259.4
70610.8
68163.9
60268.2
55904.9
2846.04
2295.93
23907.5
37147.1
45835.8
51899.2
55572.6
57328.2
79197.1
77923
75255.1
70618.7
68180.1
60329.1
55959
2380.33
2298
24130.2
37117.2
45743.3
51834.8
55510.3
57270
77045.6
75335.8
71700.1
65278.8
54281.7
43968.9
18660.1
2314.27
2305.5
26974.7
39585
48112.4
53810
57241.8
58881.3
77010.5
75294.9
71637.7
65190.5
54128.8
43782
18558.7
2248.96
2302.52
26757.9
39414.6
48071.1
53777.1
57230.1
58872.4
76966.8
75249.6
71564.5
65100.5
53920
43384.5
18388.3
2230.21
2301.75
21937.9
39388.7
48038.5
53771.8
57235.3
58879
76926.7
75227.1
71468.2
65008.3
58494.3
43046.8
18407.9
2247.56
2299.85
21722.9
35434.2
48004.3
53764
57257.3
58904.4
76907.3
75218
71465.6
67642.6
58488.8
47002.8
24982.2
2277.35
2270.28
18631.5
33611.1
45242.6
53796.5
57322.9
58943.3
76894.9
75195.7
73095
67611.2
60770.4
48958.7
25761.4
2284.27
2294.29
18481.6
32677
45189.1
51881.3
57354.4
58989.2
76844.3
75134.9
73099.6
67538
61769
49090
26003.6
2287.38
2318.19
18394.4
32667.8
43859.9
51876.5
57333.2
58970.7
76776.6
75070.9
73042.3
68870.1
61681.6
49156.6
26309.1
2295.81
2271.19
18153.3
32659.5
43218.3
51859
57296.4
58936.1
76718.4
74999.7
72973.6
68797.3
61581.1
48975
25971.2
2291.7
2349.56
18598.9
32708.1
43189
51814.3
57223.4
58863.4
76653.8
74941
72914.8
67318.8
61534.8
48811.5
25834.4
2295.06
2305.8
18849.6
32698.5
43765
51734.6
57134.9
58773.2
76566.7
74862.9
71076.1
67372.2
60454
48724.6
25757.3
2281.35
2287.51
18641.5
32594.2
44959.7
53473.4
57008.8
58631.3
76506.5
74795
71016.2
64543
58150.8
42920.6
20024.8
2284.95
2270.21
19544.2
35144.1
47578.4
53336.4
56850.3
58505.5
76481.2
74755.7
71059.4
64595.1
53465.2
43037.5
18416
2280
2302.68
21343
38852.6
47492.6
53262
56749.7
58405.5
76470.3
74747.8
71082.9
64641.4
53628.1
43327.3
18385.5
2268.34
2301.82
25760
38845.1
47412.4
53191.6
56676
58334.1
76458.1
74741.7
71097.7
64678
53715.6
43531.3
18465.5
2266.51
2302.74
25987
38835.3
47377.9
53155
56631.8
58289.8
76732.8
74963.7
71166
64555.9
53274.4
40271.3
6175.05
2302.46
4975.67
33750
45356.4
52974
57909.4
60800
62168
76688
74911
71075.5
64400.4
53044.6
39852
5357.67
2239.36
2418.34
32911.5
44960.5
52829.2
57827.6
60761.9
62140.9
76632.2
74851.9
70976.4
64249.6
53257.1
38691.9
7239.47
2254.02
2303.19
25511.3
45040.2
52780.9
57777.2
60734.7
62122
76580.2
74822.3
70927.4
64249.5
55566.8
38082.2
9135.62
2276.47
2298.57
25467.4
39812.9
52698.6
57706.5
60709.3
62113.7
76553.9
74833.7
71029.6
65772.8
55438.6
40868.4
18033.6
2270.88
2303.71
21167.8
37212.7
49092.7
57734.8
60738.3
62121.4
76540.1
74848.6
71828.4
65716
56999.1
42243
18276.4
2272.23
2295.71
20773.7
35807.5
48950.7
55149.9
60784
62146.8
76475.3
74777.6
71804.7
65667.4
57702.8
42524
19329.8
2293.5
2282.94
20505.4
35666.4
47097.8
55091.2
60755.5
62117.2
76397.5
74694.4
71741.5
66495.8
57569.9
42692.3
24056
2309.79
2266.43
20442.8
35610.2
46174.4
55051.6
60707.7
62076.3
76319.8
74601.8
71654
66382.2
57385.2
42160.8
18621
2468.71
2314.71
20670.1
35642.5
46139.1
55004
60632.1
62000.3
76246.9
74523.8
71539.8
65322.1
57281.4
41862.3
18234.7
2302.14
2325.92
21116.8
35697.9
46989.4
54946.6
60541.2
61916.6
76143.8
74388.1
70498.1
65309
56440.2
41760.9
18055.1
2274.94
2297.57
21020.6
35718.9
48716
57367.7
60401.6
61792.8
76082.4
74291.3
70328.7
63557.2
54840.2
37973.1
17326.8
2284.35
2298.09
22403.7
39354.7
52218.2
57247.7
60280.4
61698
76065.8
74257.1
70326.5
63530.1
52445.9
37818.2
7689.97
2289.13
2307.35
25121.7
44376.9
52209.6
57237.9
60228
61632
76065.8
74262.9
70378.4
63646.8
52241.3
39170.9
5558.4
2263.66
2322.81
32305.1
44355.8
52137.1
57213.7
60186.1
61585.6
76062.7
74267.9
70419.7
63748.3
52360.8
39590.2
5321.6
2243.16
2313.44
32231.6
44380.9
52157.5
57209.7
60161.7
61556.3
78986.2
77653.2
74809.3
70132
60256.3
49305.3
2347.43
2317.2
29571.9
50660.8
55991.4
61262.1
64493.4
66358.6
67259.9
78930.3
77583.3
74686.7
69859.3
59837.4
48424.9
2321.6
2315.46
29085.7
49900.2
55505.5
61044.7
64373.3
66299.2
67219.1
78861
77505.3
74563.8
69487.4
61662.8
45809.4
12745.6
2337.53
6288.47
38127.3
55580.7
60867.7
64278.5
66256.7
67187.4
78797
77442.7
74457.4
69417
60798
44644.5
14768
2287.07
2303.29
35807
49236.1
60769.3
64146.5
66212.9
67164.6
78761.6
77429.9
74539.1
69231.6
60286.3
45293.5
20597.9
2274.28
2305.13
28605.2
45868.9
56684.8
64249.2
66248
67172.3
78741
77456.6
74243.1
69011.5
60452
45627.7
20401.1
2279.23
2301.13
27847.8
43930.5
56558.1
61296
66349.8
67216.8
78661.5
77369.5
74114.8
68874.4
60460.8
45496.3
21432.8
2284.74
2299.98
27357.5
43668.6
54338.8
61221.9
66332.6
67187.1
78574.4
77267.8
74012.2
68878.8
60157.7
45150.3
20527.5
2300.25
2303.18
27322.1
43537.4
53179
61201.1
66281.7
67141.1
78479.4
77152
73897.6
68713.5
59883.6
44650.7
19815.1
2267.88
2302.26
27515.5
43490.2
53098.1
61120.4
66188.4
67054.9
78403
77066.1
73776.5
68374.4
59763.4
44500.7
20185.3
2291.41
2290.42
27688.1
43495.8
54106.6
61010.4
66071.3
66961
78292.8
76898.6
73856.1
68372.4
59496.9
44638
21417
2372.79
2305.45
27913.8
43614
56185.7
63817.1
65874
66819.7
78235.3
76822.3
73705.1
68444.8
59367.1
43403.1
18926.8
2283.2
2303.73
30469.2
48412.1
60190.7
63641.1
65757.2
66730.8
78229.4
76821.7
73766.9
68509.3
60365.7
44020.6
13074.9
2336.3
11185.5
36179.3
54754.4
60230.6
63695.7
65730.6
66685.1
78243.3
76848.7
73850.8
68866
58667.4
46961.1
2317.13
2315.6
27066.6
48811.6
54642
60282.3
63729.7
65709.7
66656.3
78251.4
76870.9
73923.3
69085.1
58976.1
47710.9
2322.97
2313.66
25454.6
48999.6
54759.3
60359.9
63756.3
65703.5
66639.6
83298.7
82784.7
81762.8
81310.5
79095.7
87025.7
122369
91844.3
84862.5
75979.1
71647.4
72505.2
72861.9
73266.9
73537.1
83231.5
82687.4
81589.3
80789.5
78008.7
84039.8
110053
72973.4
80619.9
74374.1
71029.6
72220.8
72720.8
73202.2
73492.9
83144.5
82568.3
81413.9
79619.8
78040.1
68669.3
59347.4
36008.4
45544.3
61625.3
70489.2
71646.4
72562.2
73144.3
73454.8
83059.7
82456.8
81177.9
79332.2
73183.4
64499.7
41377.5
11840.2
21642.9
57776.2
64619.6
71378.4
72383.5
73098.1
73427.9
83005.1
82397.9
81168
77227.7
72806.9
62037.6
36820.4
10083.6
12072.1
46916.3
60874.1
67785.8
72461.2
73144.3
73445.5
82971.6
82389.4
79713.8
76978.1
71203.2
60823.5
36960.2
2176.75
10257.3
45805.4
58736.3
67829.6
69800.8
73202.8
73513
82880.9
82291.6
79509.7
76810
70317.9
59880.2
35069.3
2290.15
2574.44
45394.7
58529.1
65543.1
69810.3
73193.6
73485.5
82791.9
82191.4
79366.1
75756.2
69797.5
58662.8
32238.2
2288.63
2344.07
44829.5
58290.3
64199.8
69804.6
73141.6
73435.8
82688.8
82061.5
79227.8
75537.4
69378.4
57841.4
31851.7
2380.38
8288.15
44739.8
58045.3
64030.4
69672.7
73025
73335.1
82618.9
81979.7
79107.9
76126.8
69196.5
57546.6
31201.5
2252.48
8740.76
44421
57813.1
65051.2
69465.7
72893.8
73231.1
82516.5
81832.7
80417.3
76002.4
69622.9
57870.7
31502.7
2278.58
9120.07
44643.9
57821.1
67130
71964.6
72729.6
73069.6
82477.8
81801.9
80348.8
78189.3
71047.5
61300.9
33732.1
3315.05
10680
49356.3
63346.9
70727.7
71842.8
72624.4
72983.7
82494
81850.7
80540.3
78467.8
76362
63432.4
43402.9
23183.8
38330.6
58543.1
69532.2
70952.1
71955.6
72615.4
72954.5
82527.1
81918.7
80669.9
79543
76136.9
80167.5
100310
56197
76775.3
72538.8
69903
71413.8
72069.4
72618.8
72941.9
82547.1
81968
80788.5
79985
77026.2
82773.9
109872
73710.1
81063.6
74175
70326.7
71625
72136.8
72630.9
72935.4
88513.4
88864
89522.2
92638.7
97052.5
103366
134831
138171
116432
95667.5
86975.5
83709.4
81395.2
80478.6
80131.9
88451
88764.3
89405.3
92317.1
96586.3
104042
140598
148397
116841
95111.6
86627.5
83485.3
81287.7
80428.4
80096.9
88362.9
88599.6
89300
90936.9
95578.9
98475.3
126319
158131
121615
92931.9
85810.9
82806.5
81144.3
80361.3
80061.4
88268.5
88463.1
88986.6
90388
90159.2
96173.5
117434
156051
113727
90393.9
83151.6
82265.2
80974.8
80316.8
80036.3
88196.9
88368.3
88783.8
87612.5
89184.4
90576.1
96205
114837
83543
82629.7
80777.7
80278.4
80932
80334.4
80045.9
88150.9
88224.6
86842.5
87238.8
86911.4
88083.7
98761.9
123913
78381.5
81944.1
79460.6
80205.8
79243.2
80301.1
80084.3
88053.4
88099.8
86732.5
86935.5
85272.6
86567.1
90762.6
113412
90126.7
82222.4
79369.9
78959.5
79297.5
80263
80050.3
87972
88008.8
86583.1
85468.8
84648.4
84766.5
84537.5
79720
74701.5
81010.6
79099.7
78140.8
79180.2
80192.6
79996
87875.6
87889.2
86447.6
85230.4
84165
83521.8
78756.8
3822.58
79349.4
80200.8
78617.3
77855
79028.3
80062.5
79885.5
87824.3
87843.5
86328.1
86289.2
83929.4
83281.1
78969.1
6382.66
67241.2
78371.1
78025.6
78262.4
78850.8
79960.8
79788.2
87746.5
87857.1
88112.7
86456.2
85047.3
83688.4
79913.6
23644.9
65852.7
78216.7
77899.1
79356.1
80380.7
79904.5
79661.1
87732.5
87867.4
88250.4
89395.5
88034.2
91736.8
94455.6
95551.6
80896.8
83445.2
81767.5
81638.7
80445
79854.5
79602.7
87764.2
87945.5
88516.2
89922
94088.5
95469.2
121473
158223
117750
90791
84996.2
82176.5
80586.4
79868
79589.9
87803.3
88063.7
88593.2
91279.5
95288
102708
141765
153386
117663
94127.4
85841
82837
80712.4
79898.2
79589.6
87821.1
88119.4
88664.2
91555.3
95659.5
102011
137185
141973
117862
94684.6
86132.4
83058.6
80775.6
79912.2
79584.9
93250.2
94037
95245.1
98421.8
103599
104054
112961
120476
111816
101398
95659.4
91432.2
88267.1
86789.1
86086.2
93235.5
94013.7
95333.2
98766.6
104326
106265
118587
126347
113062
102230
95979.9
91490
88283.2
86786.8
86079.8
93210
93914
95532.7
98492.5
103998
108359
118568
136728
117639
105194
95835.9
91301.9
88323.8
86771.1
86082.1
93160.2
93848
95417.8
98685.6
101044
110599
126931
149723
127704
106169
95946.8
91195.3
88324.5
86773
86092.4
93096.6
93762.7
95299.5
96200.2
101091
108975
128233
163930
134935
108082
95914.3
90540.1
88356.1
86808.1
86115.3
93027.6
93535.8
93684.5
95973.9
99169
107701
130084
137074
141273
109434
96259.2
90932.9
87662.9
86751
86139.3
92942.9
93427.8
93605.6
95888.1
98260.4
107487
127835
163673
135068
110038
96914.6
90886.2
87830.4
86752.4
86125.9
92878.1
93344.1
93510.8
94595.1
98094.8
106965
125861
163797
142271
110389
97106.8
90661.9
87764.4
86666.6
86068.5
92795.4
93252.9
93401.4
94398.9
97780.1
106632
127034
150498
147906
110106
96505.3
90235
87497.3
86502.9
85939.2
92758
93225
93311.7
95368.5
97474.2
106531
130239
174843
137348
108069
95529.1
89817.1
87188.2
86366.7
85831.9
92732.6
93366.6
94810.4
95479.3
98257.6
106301
128875
183937
139488
107525
94956.3
89829.1
87798.7
86383.9
85737.9
92730.6
93396.2
94927
98158.6
100349
110748
128942
168408
136232
107122
95337.4
90691.6
87863.6
86354.8
85694.8
92731.9
93422.8
95021.4
98000.4
103765
109547
123009
143212
120641
105901
95541.1
90896.7
87883.1
86350.6
85668.5
92721
93497.5
94840.9
98383.6
104366
106998
122001
130926
114788
102562
95947.8
91177.4
87875.4
86361.8
85649.7
92697.8
93488.9
94729.9
98058.2
103742
104887
117805
124990
113948
101655
95656.9
91136.5
87835.7
86341.6
85625.6
96695.3
97436.1
98397.5
99948.1
103545
102987
104072
108017
103670
100695
98277.5
95259
92801.9
91500.1
90772.5
96746.2
97511.1
98610.4
100560
104507
104309
106587
108352
104766
101880
98844.8
95529.3
92941.4
91560.7
90808.8
96828
97545.8
99012
101184
104826
107119
111266
118122
110846
104448
99360.9
95867.9
93191.9
91646.5
90883.1
96883.6
97650.2
99231.2