/*--------------------------------*- C++ -*----------------------------------*\
| =========                 |                                                 |
| \\      /  F ield         | OpenFOAM: The Open Source CFD Toolbox           |
|  \\    /   O peration     | Version:  v2012                                 |
|   \\  /    A nd           | Website:  www.openfoam.com                      |
|    \\/     M anipulation  |                                                 |
\*---------------------------------------------------------------------------*/
FoamFile
{
    version     2.0;
    format      ascii;
    class       volScalarField;
    location    "0.013";
    object      p_rgh;
}
// * * * * * * * * * * * * * * * * * * * * * * * * * * * * * * * * * * * * * //

dimensions      [1 -1 -2 0 0 0 0];


internalField   nonuniform List<scalar> 
449343
(
106440
106575
106800
107017
107111
106858
106068
104668
102709
100404
98047
95914.1
94198.3
93010.2
92405
106446
106581
106808
107026
107121
106869
106082
104683
102728
100425
98069.1
95934.9
94216.6
93026.1
92419.7
106455
106592
106821
107042
107140
106890
106105
104712
102762
100465
98110.6
95973.8
94250.6
93055.7
92446.7
106468
106607
106838
107064
107163
106915
106135
104747
102806
100516
98165.6
96025.7
94295.5
93094.1
92481.5
106481
106621
106857
107086
107188
106941
106165
104784
102853
100571
98225.8
96082.2
94343.6
93134.4
92517.4
106491
106634
106872
107104
107208
106962
106191
104816
102894
100622
98280
96132.6
94385.2
93168.2
92547
106496
106640
106880
107115
107218
106974
106206
104835
102920
100655
98313.2
96164.6
94410.3
93187.2
92562.8
106494
106638
106879
107113
107217
106972
106200
104828
102914
100655
98316.1
96166.6
94409.9
93184.9
92559.6
106484
106627
106867
107100
107202
106954
106183
104809
102891
100625
98283.9
96135.9
94382.5
93160.2
92536.2
106468
106609
106846
107075
107176
106925
106148
104769
102842
100568
98225.4
96078.6
94332.5
93116.7
92496.1
106447
106587
106820
107046
107143
106890
106108
104720
102783
100498
98151.4
96008
94270.4
93062.4
92446.1
106426
106564
106793
107014
107110
106854
106067
104672
102724
100430
98077.7
95937.1
94207.2
93006.5
92394.4
106408
106543
106770
106987
107080
106823
106032
104631
102674
100372
98014.6
95876.1
94152.3
92957.4
92348.5
106394
106528
106752
106966
107059
106800
106005
104600
102637
100329
97969
95832
94112.2
92921.2
92314.5
106387
106520
106743
106955
107048
106787
105991
104583
102617
100307
97945.1
95809
94091.2
92902.1
92296.5
106285
106468
106793
107163
107434
107403
106746
105278
103063
100417
97761.6
95431.5
93607.4
92367.4
91742.2
106291
106474
106801
107173
107447
107417
106761
105297
103086
100444
97788.9
95455.9
93628
92384.9
91758
106301
106486
106816
107192
107470
107441
106789
105331
103129
100495
97841.9
95502.9
93666.9
92417.4
91787.3
106314
106502
106837
107218
107499
107470
106820
105368
103181
100562
97914.7
95567.5
93719.1
92460.2
91825.3
106328
106518
106859
107246
107532
107495
106856
105414
103230
100638
97999.3
95640.8
93776.4
92505.7
91864.9
106339
106532
106878
107272
107561
107525
106886
105456
103291
100709
98078.8
95709.4
93827.8
92544.5
91897.8
106344
106540
106890
107287
107574
107546
106909
105485
103331
100762
98143.7
95758.2
93860
92567.3
91915.8
106342
106539
106889
107288
107575
107545
106901
105426
103320
100763
98151.1
95763.3
93860.7
92565.8
91912.8
106332
106527
106876
107272
107556
107525
106883
105455
103297
100728
98109.3
95725.6
93829.4
92538.1
91887.4
106315
106508
106852
107242
107527
107484
106838
105401
103230
100646
98016.3
95648.8
93770
92489
91843.5
106293
106483
106821
107205
107485
107441
106792
105341
103150
100555
97916
95559.1
93697.2
92428.8
91789.3
106272
106458
106790
107168
107443
107405
106748
105286
103091
100468
97818.9
95471.8
93624.9
92367.6
91733.6
106252
106436
106764
107136
107408
107372
106712
105246
103036
100397
97739.9
95399.4
93563.3
92314.4
91684.7
106238
106420
106745
107113
107382
107345
106682
105211
102993
100344
97684.4
95348.5
93519.2
92275.6
91648.7
106231
106412
106735
107101
107368
107331
106667
105192
102970
100317
97656.4
95322.5
93496.3
92255.3
91629.7
105891
106181
106733
107464
108202
108735
108474
106836
103936
100396
97008.6
94232.3
92174.9
90825.6
90159.4
105896
106188
106743
107477
108219
108754
108494
106862
103969
100436
97047.4
94264.7
92200.4
90846.4
90177.8
105906
106201
106762
107505
108254
108790
108529
106912
104032
100517
97128.6
94329.6
92249.7
90885.5
90212.1
105920
106219
106789
107543
108301
108829
108556
106969
104089
100627
97250.2
94424.4
92317.9
90937.7
90256.9
105935
106239
106820
107587
108353
108856
108564
106984
104141
100775
97396.4
94536.3
92396.2
90994.6
90304.3
105948
106258
106851
107630
108412
108891
108597
107059
104252
100914
97557
94649
92468.4
91044.5
90344.3
105954
106268
106867
107660
108427
108931
108631
107109
104326
100999
97741.7
94736.7
92519.6
91074.8
90366.6
105952
106268
106868
107665
108437
108948
108664
107078
104324
101006
97754.8
94746.9
92523.5
91075.3
90364.1
105941
106255
106852
107643
108407
108905
108597
107066
104275
100952
97695.9
94694.5
92481.9
91040.6
90333.7
105922
106232
106822
107597
108373
108842
108535
106982
104165
100829
97472.3
94571.4
92398.1
90979.5
90281.9
105899
106202
106780
107542
108301
108792
108486
106891
104034
100667
97289.9
94435.6
92302.3
90906
90218.6
105876
106173
106740
107489
108240
108757
108471
106871
103979
100511
97134.3
94311.5
92209.5
90833.2
90154.5
105856
106149
106708
107446
108189
108716
108445
106817
103927
100405
97011.8
94212.2
92133.7
90771.3
90099
105841
106132
106685
107415
108152
108680
108412
106771
103869
100327
96932.8
94146.5
92081
90727
90058.6
105834
106123
106673
107400
108134
108661
108394
106747
103840
100291
96895.9
94114.4
92054.3
90704
90037.5
105127
105574
106468
107779
109375
110977
111858
109890
105484
100067
95444.6
92056.8
89730.2
88276.1
87579.5
105132
105581
106479
107797
109400
111005
111877
109927
105529
100125
95499.2
92098.4
89761.3
88300.7
87600.9
105141
105595
106502
107836
109455
111066
111937
110016
105644
100272
95623.3
92185.2
89822.6
88347.8
87641.3
105154
105614
106537
107897
109532
111154
111838
110134
105692
100526
95837.3
92318.7
89909.8
88411.4
87694.5
105168
105637
106580
107964
109634
111177
111175
109954
106607
100882
96115.4
92495.1
90013.3
88481.5
87751.1
105180
105660
106633
108072
109778
110439
111133
110054
106832
102270
96460.7
92682.7
90116
88542.9
87798.8
105186
105674
106662
108118
109123
110517
111176
110129
106949
102446
97824.3
92809.4
90182
88580.5
87825
105183
105676
106671
108129
109133
110556
111229
110068
106993
102505
97844.2
92822.6
90198.4
88585.6
87821.2
105171
105659
106646
108099
109109
110517
111165
110093
106929
102432
97787.6
92749.6
90132.5
88537.8
87785
105153
105632
106601
108035
109731
110420
111080
109996
106777
102261
96324.8
92572.3
90023.4
88462
87723.5
105129
105597
106537
107914
109573
111100
111113
109892
106603
100728
95964
92360.6
89894.9
88374.3
87649.5
105106
105565
106485
107839
109464
111071
111735
110008
105536
100370
95685.3
92176.8
89778.6
88288.2
87575.5
105087
105540
106445
107774
109385
110987
111842
109906
105525
100137
95482.6
92045.8
89687.3
88216.5
87512.3
105073
105522
106418
107732
109330
110929
111791
109831
105423
100006
95370.2
91964.1
89625.9
88166
87467
105066
105513
106405
107714
109306
110903
111778
109802
105388
99957.9
95322.7
91926
89595.5
88140.3
87443.5
103795
104413
105700
107747
110614
114214
118012
115271
107805
98645.4
92349.6
88492.3
86072.2
84648.6
83995.6
103797
104418
105710
107766
110645
114256
118039
115308
107874
98731.8
92418.5
88539.1
86106.3
84675.8
84019.5
103802
104428
105732
107812
110731
114365
118128
115408
108071
98943.2
92580
88638.2
86174.7
84728.5
84064.5
103808
104442
105769
107915
110948
114610
115894
115637
109848
99635.2
92950.2
88811.7
86274
84800.3
84124
103813
104457
105818
108015
111097
113166
116000
115771
110221
102206
93401.8
89029.6
86394.7
84877.5
84186.5
103820
104483
105899
108262
110277
113445
116186
115904
110514
102792
95867
89329.4
86502.6
84950.5
84238.7
103817
104483
105910
107675
110375
113617
115341
115398
111087
104054
96326.9
91322.5
86533.9
84974.1
84261.7
103815
104488
105974
107686
110431
113679
115421
115476
111263
104250
96513.6
91434.5
86652.3
84969.8
84259.6
103801
104466
105893
107657
110395
113633
115351
115403
111128
104136
96373.4
91344.4
86465.3
84918.5
84212.3
103790
104452
105864
108220
110246
113441
115275
115209
110820
102802
95899.5
89166.9
86376.1
84847.9
84146.6
103771
104414
105770
107961
111028
113179
115937
115604
110066
102261
93168.9
88840.3
86241.1
84745.8
84064.8
103756
104389
105713
107853
110875
114515
115817
115566
109891
99407.6
92740.7
88627.4
86111.8
84653.1
83984.3
103743
104368
105670
107747
110659
114282
118020
115373
107925
98775.3
92406.3
88469.5
86014.5
84575.7
83915.8
103734
104354
105645
107700
110575
114182
117956
115249
107768
98605.9
92272.8
88384.6
85950.9
84522.1
83867.2
103729
104347
105633
107679
110545
114143
117937
115205
107723
98544.2
92219.8
88346.4
85920.3
84495.2
83842.2
101647
102386
103986
106732
111109
118009
123583
128846
114999
93761.3
86507.5
82987.8
80950.4
79877.5
79424
101643
102385
103989
106747
111145
118054
123611
128877
115041
93837.2
86568.2
83026.3
80982.1
79905.3
79449.1
101637
102381
103995
106766
111205
118168
123676
128965
115146
93980.3
86676.7
83093
81043.8
79957.9
79496
101628
102382
104019
106862
111652
116067
123873
129219
115407
98797
87041.5
83178.9
81133.1
80031.7
79558.1
101611
102365
104017
106971
110477
116438
124347
127065
117165
99995.5
90689.9
83350.2
81191
80096
79620.2
101601
102353
104094
106584
110648
115600
122753
126375
117845
102975
91393.4
86068
81268.8
80139.1
79667
101579
102323
104094
106646
110837
115715
122003
126793
119098
104723
93584
86388.4
81283.7
80140.5
79681.8
101562
102291
104093
106713
110191
115234
122126
127053
119616
105230
93832.4
86512.2
83302.8
80082.8
79666.7
101561
102303
104072
106668
110166
115688
122060
126888
119321
104968
93647.3
86336.4
81177.3
80066.7
79620.3
101567
102318
104057
106542
110742
115633
121833
126467
118539
104170
93164.3
86045.1
81097.8
80011.7
79556.6
101563
102317
103966
106914
110442
116466
122454
126984
117245
102185
90719
83080.5
80992.1
79935
79475.5
101570
102324
103959
106798
111579
116059
123872
129147
115309
98855.3
86753.6
82939.2
80933.5
79856.8
79394.9
101571
102316
103929
106699
111133
118086
123633
128900
115080
93776.1
86463.8
82891.1
80855.5
79781.1
79325.4
101573
102314
103920
106678
111076
117982
123544
128824
114994
93718.9
86404.8
82849.7
80804.3
79730.1
79276.2
101573
102314
103915
106663
111042
117943
123528
128810
114992
93698.9
86373
82826.7
80779.4
79704.3
79250.8
98464
99174.4
100766
103675
108652
115520
132039
161847
118565
85774.8
75932.5
74815.6
74206.8
74047.5
74020.6
98453.3
99163.5
100755
103665
108653
115525
132036
161845
118482
85755.7
75940.5
74826.7
74232.7
74074.6
74046.5
98428.2
99133.4
100718
103607
108566
115527
131995
161854
118536
85865.9
75948.8
74847.4
74278.9
74122.7
74094.3
98393.2
99094.1
100672
103419
107993
115948
132080
161843
118596
86281.9
79610.5
74731.6
74339.6
74184.5
74157.2
98333.8
99011.7
100502
103522
108056
115130
129233
161917
120129
90888.7
79853
77261.7
74290.6
74236.9
74217.7
98273
98876.9
100983
103596
107838
115175
127971
157298
126175
94218.4
82944.8
77550.2
76247.4
74234.3
74255.1
98235
98833.8
100982
103601
107888
114804
128033
157875
129181
96554.2
85237.4
79594.9
76358.6
74288.6
74288
98195.9
98795
101033
103621
107892
114802
128080
158383
132554
98431.5
85923.6
79810.3
76434.4
74283
74249.5
98216.7
98815.9
100977
103625
107897
114778
128012
158025
130605
97488.7
85572.9
79641
76285.8
74206
74216.1
98233.2
98836.7
100963
103542
107857
114738
127894
157359
127091
94985.1
84485
79168.1
76110.2
74092.9
74132
98279
98957.4
100447
103477
108019
115123
127848
156974
125196
93117.4
82205.1
77033
74047.5
74046.8
74050.2
98326.3
99027.6
100607
103355
107838
115835
129110
161711
118667
90367.9
79291.2
74433.7
74103.6
73983.3
73971.4
98351.7
99058.7
100646
103538
108502
115483
131953
161734
118424
85755.9
75698.2
74619
74062.7
73921.9
73901.6
98371.3
99083.4
100679
103595
108589
115483
131963
161778
118463
85701.1
75756.6
74623.9
74029.8
73876.5
73851.8
98378.9
99091.7
100687
103603
108589
115460
131979
161810
118716
85785.5
75790.6
74634.6
74013.2
73852.2
73825.9
94190.9
94612.3
95557.4
97311.5
100226
106977
114469
112266
26608
55248.8
60885.1
64206.8
66310.2
67635.9
68243.9
94173.5
94592.4
95533.4
97276.8
100200
106945
114446
112185
24394.1
55038.3
60812.8
64217.1
66343.4
67667
68273.6
94133
94540.1
95470.7
97220.9
100100
106853
114367
112111
24309.8
55129.2
60888.8
64276.9
66416.7
67729.7
68331.7
94071.5
94449.3
95353.3
96935
101407
106452
114138
112001
25396.9
55638.5
62546.2
64616.7
66541.2
67815.3
68413.9
93978.1
94321.8
95139.1
98090.9
101169
106884
114922
111815
26281.2
59851.9
64684.9
66263.7
66832
67956.3
68512.1
93866.2
94190.5
96272.7
97979.2
101654
107137
114740
111451
29417.4
62275.3
66787.6
66811.4
68197.9
68134.2
68597.2
93821.4
94136.5
96243.4
97898.4
101908
107077
114623
111092
52795.2
66892.4
68500.6
68392.5
68357.1
68243.6
68665.7
93791.1
94094.6
96201.7
98537.4
101896
107041
114549
110709
75913
71098.9
69652.9
69384.9
68459.4
68272.1
68649.4
93797.6
94113.1
96190.9
98518.9
101886
107029
114537
110794
64068.5
69461.3
69130.4
69170.6
68305.2
68156.8
68589.3
93818.6
94144
96222.3
97877.9
101875
107047
114593
111152
35889.3
63766.2
67383.7
67880.2
68043.8
67976.7
68461.2
93911.6
94256.7
95075.8
97975.8
101628
107097
114709
111483
26547.5
60318
65724.9
66077.2
66579.6
67755.2
68330.8
93989.7
94370.1
95279.7
96871.2
101264
106114
113825
111874
24814.7
57122
62136.6
64274.8
66280.7
67595.1
68211.8
94040.2
94450.7
95388.5
97150.2
100043
106598
114180
111986
24357
54902
60576.3
64025.8
66174.2
67508
68119
94073.7
94496.5
95445.9
97202.4
100141
106863
114347
112073
24341.9
54930.6
60598.2
63976.3
66112.1
67445.1
68056.6
94087.4
94513
95466.9
97234.7
100166
106915
114400
112111
26057.4
55191.5
60706
63992.7
66089.3
67416
68025.9
89105.7
88991.2
88741.6
88371.4
88284.8
92328.2
96110.2
109335
13786.1
34042.6
47080.8
54216.3
58924.6
61692.8
62940.5
89088.1
88970.5
88718
88342.4
88270.6
92290.4
96076.2
109149
11533.9
33790.1
47019.8
54255.6
58971.2
61731.5
62977.2
89050
88924.4
88666.8
88328
88234.6
92193.6
95981.1
109067
8987.5
33917.9
47172.8
54399.2
59086.9
61823.4
63055
88995.2
88841.3
88579.1
88378.3
91033.6
92138.5
95766.8
108943
2314.21
34357.7
47582.5
54890.6
59300.6
61976.7
63177.1
88921.1
88748.4
88541.6
90398
91050.7
93982.4
96832.9
108926
5713.95
34884.6
48692.1
55931.6
59693.2
62215.5
63335.8
88836.7
88734.6
90111.3
90309.8
92279.2
94765.6
96689.8
108521
2130.88
36641.5
49989.6
56409.6
60577.3
62443.1
63494.1
88808.7
88717.3
90004.9
90276.4
92908.4
94670
96584.5
108406
5861.4
39713.1
51354.4
57298
60787.1
62558.3
63578
88782
88683.8
89945.9
91236.1
92862
94622.4
96528.6
108305
72538.3
42509.4
52230.2
57850.1
60848.2
62590.2
63574.2
88777.3
88686.6
89929.9
91219.1
92854.8
94617.9
96529.1
108348
14649
40529.1
51744.2
57662.6
60721.9
62469
63500.6
88775
88674.7
89959
90268.4
92876.5
94660.8
96588.8
108441
5959.18
37100.2
50351.4
56814.4
60478.2
62274.9
63350.1
88835
88664.7
88463.2
90244.2
92279.3
94768.7
96700.8
108562
5899.23
34926.6
49036.8
55706.8
59428.2
62005.7
63148.4
88890
88740.3
88487.7
88306.8
91021.5
92259.5
95925.9
108976
4345.13
33876.5
47490.4
54565.8
59027
61742.8
62960.5
88930.9
88810.4
88564.6
88247.9
88184.8
92137
95864.6
108959
4320.33
33642.4
46841.4
54107.7
58823
61580.9
62823.4
88960.2
88848.3
88608.5
88255.9
88214.9
92222.9
96012
109073
4619.04
33558.3
46725.6
53980.6
58711.2
61484.3
62737.4
88973.3
88864.7
88628.4
88281.6
88225
92289.1
96081.4
109132
2458.76
33517.1
46772.7
53943.9
58666.9
61444.2
62697.4
83920.9
83205.3
81721.3
79361.6
78936.5
77661
80139.1
2167.02
25879.7
39733.1
48139.5
54002
57524.1
59167
83908.7
83190.7
81705
79344.7
78907
77620.7
80092.8
2203.78
25879.9
39733.9
48206.1
54049.1
57565.1
59205.3
83887.1
83169.8
81674.3
79317.3
78913.9
77587.4
79996.1
2216.23
25693.1
39913
48338.9
54159
57661.4
59286.2
83867.3
83145.1
81632.8
79461.2
79191.8
77503.7
79815.8
2238.32
25820.5
38967.2
48727.8
54346.7
57824.1
59413.5
83853.6
83132.4
81756.7
81592.5
79739.5
79614.5
80502.3
2249.47
23660.6
38728.4
48543.7
54681.9
58057.1
59576.3
83838
83245.6
83223.5
81834.3
81088.7
80592.2
80438.2
2271.4
24287.5
38991.7
48841.6
54678.3
58199.1
59738.3
83832.2
83249.3
83192.7
81915.2
81874.7
80612.8
80416.3
2260.56
25218.4
39660.8
48937.8
54870.7
58265.3
59800.8
83805.4
83227.6
83164.7
82761.6
81960.5
80612.5
80413.9
2331.29
25321.8
40009.2
49060.4
54891.9
58279.9
59794.3
83789
83206.7
83139.5
82758.1
81948.7
80603.3
80411.1
5125.37
25284
39792
48943.5
54811
58186.4
59728.2
83754.2
83164.2
83133.1
81858.7
81842.3
80595.5
80427.2
2318.16
24534.2
39167.1
48643.5
54638
58048.3
59597.5
83736.8
83017.7
81648.6
81507.1
81001.4
80575.2
80477.7
2325.92
23775
38500.6
48388.7
54452
57853.9
59387.4
83726
83007.8
81506.9
79366.4
79194.3
77673.1
79634.2
2333.4
24113
38838.3
48469
54086.7
57587.7
59189
83728.2
83016.4
81535.5
79213.1
78853.6
77573.2
79984.8
2359.51
25316
39592
48006.2
53871.9
57402.3
59038.8
83738.8
83027.1
81557.4
79232.5
78860.6
77620.1
80113.7
2375
25387.6
39399.7
47889.3
53752
57291.7
58943.1
83745.4
83036.3
81568.6
79243.9
78831.9
77645.5
80175.7
2393.55
25448.1
39379.2
47808.4
53699.9
57243.8
58897.7
79570.5
78293
75613.7
70946.7
68447.5
60474.6
55999.3
3236.49
2175.35
25041.9
37502.6
46315.1
52323
55955.8
57701
79560.4
78279.3
75591.6
70909.8
68401
60390.3
55853.7
2732.51
2197.31
25140.9
37445.6
46365.9
52345.1
55986.6
57729.1
79545.5
78265.1
75553.2
70822
68342.3
60265.1
55719.1
2293.41
2217.3
21375.6
37750.5
46416.3
52413.7
56054.7
57786.7
79539.8
78266
75479.5
70780.7
68271.4
60096.7
55638.3
2300.17
2254.37
21489.2
35194.3
46596.4
52513.9
56169.2
57875.9
79554.1
78267.6
75443.7
73810.3
68005.9
63066.9
57540.7
2296.55
2269.58
19279.3
34025.8
45007.5
52686.7
56340.8
57985.1
79567.9
78286.5
77413
73689.3
70035.2
64431
57596.1
2882.19
2261.18
19395.8
33587.7
45130
51687.4
56420.6
58108.6
79555.7
78268.2
77387.6
73565.8
70910.9
64451.9
57679.4
2616.59
2284.91
19463.9
33800.1
44435.8
51790.1
56438.1
58132.2
79520.3
78241
77341.9
74956.1
70880.6
64475.5
57788.3
7692.34
2313.35
19059
33889.8
44137.9
51813.3
56437.6
58122.7
79494.2
78204.6
77312.6
74941.1
70849.7
64440.3
57735.9
2386
2303.93
19660.5
33897.1
44095.5
51766.3
56371.8
58067.2
79450.8
78167.4
77316.5
73499.9
70853.5
64399
57690.4
2299.4
2323.46
19734.6
33726.5
44317.3
51652.3
56280.6
57971.8
79392.3
78103.5
75275.6
73689.8
69964.1
64401.4
57693.6
3232.48
2331.25
19432
33449.3
44891
52483.8
56145.5
57800.5
79346
78072.2
75290
70617.8
68087.1
60131.3
55880.2
3322.22
2367.24
20058
35046.5
46335
52254.5
55931.5
57646.3
79329.7
78051.7
75349.4
70651.3
68165.2
60256.1
55957.7
3032.56
2368.43
20946.6
37470.5
46076.6
52114.4
55782.5
57525.3
79331.3
78053.4
75377.1
70728.5
68276.7
60381
56015.3
2939.67
2383.82
24025.2
37264.8
45953.5
52016.9
55690.3
57446
79334.5
78060.4
75392.4
70756
68312.5
60461.5
56089
2508.47
2405.25
24267.6
37254.5
45880.7
51972.2
55647.6
57407.3
76908.2
75198.5
71562.7
65141.5
54144.4
43826.7
18515.4
2207.61
2180.77
26837.4
39447.7
47975
53672.6
57104.5
58743.9
76892.7
75177.2
71520
65072.8
54011.1
43659.4
18433.6
2248.79
2202.89
26640.2
39296.8
47953.3
53659.4
57112.4
58754.7
76868.7
75151.5
71466.4
65002.4
53821.9
43281.5
18282.9
2230
2220.35
21834.9
39290.6
47940.4
53673.7
57137.2
58780.9
76848.2
75148.6
71389.7
64929.8
58410.9
42963.4
18322.1
2247.31
2244.25
21639.5
35350.9
47925.8
53685.5
57178.8
58826
76848.5
75159.1
71406.7
67578.8
58425
46936.6
24914.8
2277.2
2265.05
18564.1
33544.8
45178.9
53737.6
57264
58884.4
76855.6
75156.5
73050.9
67567.1
60723.8
48910.9
25713.6
2283.69
2288.8
18433.8
32629.1
45145
51837.2
57315.1
58949.9
76824.7
75115.2
73075.1
67513.5
61740.8
49061.8
25975.4
2285.76
2315.99
18366.2
32639.6
43833
51852
57313.6
58951.1
76776.6
75070.9
73037.4
68862.8
61673.1
49148
26300.5
2295.22
2270.36
18144.8
32650.9
43209.7
51854.1
57296.4
58936.1
76738
75019.3
72988.3
68809.6
61592.2
48986
25982.2
2291.79
2359.75
18609.9
32719.2
43200
51829
57243
58883.1
76693
74980.3
72949.2
67353.1
61565.5
48842.2
25865.1
2297.45
2316.5
18880.3
32729.1
43796.9
51768.9
57174.1
58812.5
76625.6
74921.8
71134.9
67426.2
60505.5
48774.9
25807.6
2281.64
2292.67
18691.8
32644.4
45013.6
53532.3
57067.6
58690.1
76585
74873.5
71094.6
64621.5
58224.4
42994.2
20095.9
2285.71
2275.28
19615.4
35217.7
47656.9
53414.9
56928.8
58584
76579.3
74853.8
71157.5
64693.2
53563.3
43130.7
18506.8
2280.37
2376.76
21436.2
38950.7
47590.7
53360.1
56847.8
58503.6
76588
74865.6
71200.6
64759.1
53745.8
43440.1
18495.9
2268.62
2391.91
25877.8
38962.8
47530.2
53309.3
56793.7
58451.8
76595.5
74879
71235
64815.3
53852.9
43663.8
18595.5
2267.05
2413.85
26124.4
38972.6
47515.3
53292.4
56769.1
58427.2
76595.5
74826.4
71028.6
64418.5
53137.1
40133.9
6032.8
2280.12
4838.36
33612.6
45219
52836.7
57772.1
60662.6
62030.7
76570.3
74793.3
70957.8
64282.6
52926.8
39734.3
5235.05
2239.2
2301.26
32793.8
44842.8
52711.5
57709.9
60644.2
62023.2
76534.1
74753.8
70878.3
64151.5
53159
38588.9
7136.46
2253.62
2216.36
25408.3
44942.1
52682.8
57679.1
60636.6
62023.9
76501.7
74743.8
70848.9
64171
55483.4
37998.8
9052.23
2275.97
2237.33
25384
39729.5
52620.1
57628.1
60630.8
62035.3
76495
74774.8
70970.7
65709
55374.8
40802.2
17966.1
2270.66
2268.44
21100.3
37146.5
49028.9
57675.9
60679.4
62062.5
76500.9
74809.3
71784.3
65671.8
56952.5
42195.2
18228.5
2270.43
2282.45
20725.9
35759.7
48906.6
55105.7
60744.8
62107.6
76455.6
74758
71780.1
65642.8
57674.6
42495.8
19301.6
2292.07
2280.87
20477.2
35638.2
47070.8
55066.7
60735.9
62097.6
76397.5
74694.4
71736.6
66488.5
57561.4
42683.7
24047.4
2305.88
2265.44
20434.2
35601.6
46165.8
55046.7
60707.7
62076.3
76339.5
74621.4
71668.7
66394.5
57396.2
42171.8
18632
2470.17
2322.97
20681.1
35653.6
46150.2
55018.8
60651.8
62019.9
76286.1
74563
71574.2
65356.5
57312
41893
18265.4
2317.24
2354.99
21147.5
35728.6
47021.3
54981
60580.5
61955.8
76202.7
74446.9
70557
65362.9
56491.7
41811.1
18105.4
2275.98
2312.87
21070.8
35769.1
48769.9
57426.6
60460.5
61851.6
76160.9
74369.7
70407.2
63635.7
54913.7
38046.7
17397.9
2284.82
2317.01
22474.9
39428.3
52296.7
57326.2
60358.9
61776.5
76163.9
74355.2
70424.6
63628.2
52544
37911.4
7783.17
2289.61
2389.45
25214.9
44475
52307.7
57336
60326.1
61730.1
76183.5
74380.7
70496.1
63764.6
52359
39288.6
5671.22
2263.88
2437.03
32422.8
44473.5
52254.9
57331.4
60303.8
61703.3
76200
74405.2
70557
63885.7
52498.2
39727.6
5454.04
2243.34
2445.03
32369
44518.3
52294.8
57347
60299
61693.6
78848.9
77515.8
74671.9
69994.7
60119
49167.9
2223.33
2268.9
29434.6
50523.4
55854
61124.8
64356.1
66221.2
67122.5
78812.6
77465.6
74569
69741.5
59719.7
48307.2
2230.04
2289.08
28967.9
49782.5
55387.8
60927
64255.6
66181.5
67101.4
78762.9
77407.2
74465.7
69389.3
61564.7
45706.3
12642.6
2336.85
6185.55
38024.3
55482.6
60769.6
64180.4
66158.6
67089.3
78718.5
77364.2
74378.9
69338.5
60714.6
44561.1
14684.6
2286.16
2231.25
35723.6
49152.7
60690.8
64068
66134.5
67086.1
78702.7
77371.1
74480.2
69167.9
60222.5
45227.3
20530.5
2273.66
2252.79
28537.8
45802.7
56621
64190.3
66189.1
67113.4
78701.8
77417.4
74199
68967.3
60405.4
45579.9
20353.3
2269.21
2269.73
27800
43882.7
56513.9
61251.9
66310.6
67177.6
78641.9
77349.9
74090.3
68849.8
60432.6
45468.1
21404.6
2283.9
2292.33
27329.3
43640.4
54311.8
61197.4
66313
67167.5
78574.4
77267.8
74007.3
68871.4
60149.2
45141.7
20518.9
2297.32
2298.97
27313.5
43528.8
53170.4
61196.2
66281.7
67141.1
78499.1
77171.6
73912.3
68725.8
59894.7
44661.7
19826.1
2267.95
2312.62
27526.5
43501.3
53109.2
61135.1
66208.1
67074.5
78442.2
77105.4
73810.8
68408.7
59794
44531.4
20216
2295.83
2315.34
27718.7
43526.4
54138.4
61044.7
66110.5
67000.3
78351.7
76957.4
73915
68426.4
59548.4
44688.3
21467.2
2412.59
2343.71
27964.1
43664.3
56239.7
63876
65932.9
66878.6
78313.8
76900.8
73783.6
68523.3
59440.7
43476.6
18997.9
2283.74
2354.6
30540.4
48485.7
60269.2
63719.6
65835.7
66809.3
78327.5
76919.8
73865
68607.4
60463.8
44113.8
13168.1
2337.71
11278.7
36272.5
54852.5
60328.7
63793.8
65828.7
66783.2
78361.1
76966.5
73968.6
68983.7
58785.1
47078.8
2404.95
2336.71
27184.3
48929.3
54759.8
60400
63847.5
65827.4
66774
78388.7
77008.2
74060.6
69222.4
59113.4
47848.3
2434.44
2348.54
25591.9
49137
54896.6
60497.2
63893.7
65840.8
66776.9
83161.3
82647.4
81625.5
81173.1
78958.4
86888.3
122232
91707
84725.1
75841.8
71510
72367.8
72724.5
73129.5
73399.7
83113.7
82569.7
81471.6
80671.8
77890.9
83922.1
109935
72855.7
80502.2
74256.4
70911.9
72103.1
72603.1
73084.5
73375.2
83046.4
82470.2
81315.8
79521.7
77942
68566.3
59244.3
35905.4
45441.3
61522.3
70391.1
71548.3
72464.1
73046.2
73356.7
82981.2
82378.3
81099.5
79253.7
73100.1
64416.3
41294.1
11754.4
21557.1
57692.9
64536.2
71299.9
72305
73019.6
73349.4
82946.2
82339
81109.1
77163.9
72743.1
61971.4
36752.9
10016.2
12004.7
46848.9
60807.9
67722
72402.4
73085.4
73386.7
82932.4
82350.1
79669.7
76934
71156.6
60775.6
36912.4
2174.63
10209.5
45757.6
58688.5
67785.4
69756.7
73163.5
73473.7
82861.3
82272
79485.1
76785.5
70289.7
59852
35041.1
2286.18
2547.05
45366.5
58500.9
65516.1
69785.8
73174
73465.9
82791.9
82191.4
79361.2
75748.8
69788.9
58654.2
32229.6
2287.48
2336.15
44820.9
58281.8
64191.2
69799.7
73141.6
73435.8
82708.5
82081.2
79242.6
75549.7
69389.5
57852.4
31862.7
2382.01
8299.18
44750.8
58056.3
64041.5
69687.5
73044.6
73354.7
82658.1
82019
79142.3
76161.1
69227.1
57577.2
31232.2
2252.79
8771.41
44451.7
57843.8
65083.1
69500.1
72933
73270.3
82575.3
81891.5
80476.1
76056.3
69674.5
57920.9
31553
2299.53
9170.35
44694.2
57871.4
67184
72023.5
72788.5
73128.5
82556.3
81880.4
80427.2
78267.7
71121.1
61374.5
33803.3
3384.95
10749.8
49427.5
63420.5
70806.2
71921.2
72702.9
73062.1
82592.1
81948.8
80638.4
78565.9
76460.1
63525.6
43496.1
23277
38423.8
58636.3
69630.3
71050.2
72053.7
72713.5
73052.6
82644.9
82036.4
80787.6
79660.7
76254.6
80285.2
100428
56314.7
76893
72656.5
70020.8
71531.5
72187.1
72736.6
73059.6
82684.5
82105.3
80925.8
80122.3
77163.6
82911.2
110010
73847.5
81201
74312.4
70464.1
71762.4
72274.2
72768.3
73072.8
88376
88726.6
89384.8
92501.4
96915.2
103229
134694
138033
116295
95530.1
86838.2
83572.1
81257.9
80341.2
79994.6
88333.3
88646.6
89287.6
92199.4
96468.5
103924
140481
148280
116724
94993.8
86509.8
83367.6
81169.9
80310.7
79979.2
88264.8
88501.5
89201.9
90838.8
95480.8
98372.3
126215
158028
121512
92828.9
85712.8
82708.4
81046.2
80263.2
79963.3
88190
88384.6
88908.2
90309.6
90075.8
96090.1
117351
155965
113641
90310.5
83068.2
82186.8
80896.3
80238.3
79957.8
88138
88309.5
88725
87548.8
89120.7
90509.9
96137.5
114769
83475.5
82562.3
80711.4
80214.6
80873.2
80275.6
79987
88111.7
88185.4
86798.4
87194.7
86864.8
88035.9
98714.1
123865
78333.7
81896.3
79412.8
80161.7
79199.1
80261.9
80045
88033.7
88080.2
86707.9
86911
85244.4
86538.8
90734.4
113384
90098.5
82194.2
79341.7
78932.6
79273
80243.4
80030.7
87972
88008.8
86578.2
85461.4
84639.8
84758
84528.9
79711.5
74692.9
81002
79091.2
78132.2
79175.3
80192.6
79996
87895.2
87908.8
86462.3
85242.6
84176
83532.8
78767.8
3831.3
79360.4
80211.8
78628.3
77866
79043
80082.1
79905.1
87863.6
87882.7
86362.5
86323.6
83960
83311.8
78999.7
6412.72
67271.9
78401.8
78056.3
78294.3
78885.1
80000.1
79827.4
87805.3
87916
88171.6
86510.2
85098.8
83738.7
79963.8
23695.1
65903
78267
77949.4
79410.1
80439.5
79963.4
79719.9
87811
87945.8
88328.9
89474
88107.8
91810.4
94526.7
95621.5
80966.7
83516.4
81841.1
81717.2
80523.5
79932.9
79681.2
87862.3
88043.6
88614.3
90020.1
94186.6
95562.4
121566
158316
117843
90884.1
85094.3
82274.6
80684.5
79966.1
79688
87921
88181.4
88711
91397.2
95405.7
102826
141883
153503
117781
94245.2
85958.7
82954.7
80830.1
80015.9
79707.3
87958.5
88256.7
88801.6
91692.7
95796.9
102148
137322
142111
117999
94821.9
86269.8
83195.9
80913
80049.6
79722.2
93112.8
93899.7
95107.8
98284.5
103461
103917
112823
120339
111679
101261
95522.1
91294.9
88129.8
86651.8
85948.9
93117.7
93896
95215.5
98648.9
104208
106147
118470
126230
112945
102112
95862.2
91372.3
88165.5
86669.1
85962.1
93111.9
93815.9
95434.6
98394.4
103900
108256
118465
136625
117536
105091
95737.8
91203.8
88225.7
86673
85984
93081.7
93769.6
95339.3
98607.2
100961
110515
126848
149637
127618
106085
95863.4
91116.8
88246
86694.6
86013.9
93037.7
93703.8
95240.6
96136.5
101027
108908
128165
163862
134867
108015
95848.1
90476.3
88297.3
86749.2
86056.4
92988.4
93496.6
93640.4
95929.8
99122.4
107653
130036
137026
141225
109386
96211.4
90888.8
87618.8
86711.8
86100.1
92923.3
93408.2
93581.1
95863.6
98232.2
107459
127807
163645
135040
110010
96886.4
90859.2
87805.8
86732.8
86106.3
92878.1
93344.1
93505.9
94587.8
98086.3
106957
125852
163788
142262
110380
97098.2
90653.3
87759.5
86666.6
86068.5
92815
93272.5
93416.1
94411.2
97791.2
106643
127045
150509
147917
110117
96516.4
90246
87512
86522.6
85958.8
92797.3
93264.2
93346
95402.9
97504.8
106562
130269
174874
137378
108100
95559.8
89849
87222.5
86405.9
85871.2
92791.4
93425.4
94869.3
95533.2
98309.1
106352
128925
183987
139538
107575
95006.6
89883.1
87857.6
86442.7
85796.7
92809.1
93474.7
95005.5
98237.1
100423
110821
129013
168478
136302
107193
95411
90770.1
87942.1
86433.3
85773.3
92830
93520.9
95119.5
98098.5
103863
109641
123103
143305
120734
105994
95639.2
90994.8
87981.2
86448.7
85766.6
92838.7
93615.3
94958.6
98501.3
104483
107116
122119
131044
114905
102680
96065.5
91295.2
87993.2
86479.5
85767.5
92835.1
93626.2
94867.3
98195.6
103879
105024
117942
125128
114085
101792
95794.2
91273.8
87973.1
86478.9
85763
96558
97298.8
98260.1
99810.7
103408
102850
103935
107880
103532
100558
98140.2
95121.7
92664.5
91362.7
90635.2
96628.5
97393.4
98492.6
100442
104389
104191
106469
108234
104648
101762
98727.1
95411.6
92823.7
91443
90691.1
96729.9
97447.7
98913.9
101086
104728
107016
111163
118019
110743
104345
99262.8
95769.8
93093.8
91548.4
90785
96805.1
97571.7
99152.7
102019