/*--------------------------------*- C++ -*----------------------------------*\
| =========                 |                                                 |
| \\      /  F ield         | OpenFOAM: The Open Source CFD Toolbox           |
|  \\    /   O peration     | Version:  v2012                                 |
|   \\  /    A nd           | Website:  www.openfoam.com                      |
|    \\/     M anipulation  |                                                 |
\*---------------------------------------------------------------------------*/
FoamFile
{
    version     2.0;
    format      ascii;
    class       volScalarField;
    location    "0.01";
    object      p;
}
// * * * * * * * * * * * * * * * * * * * * * * * * * * * * * * * * * * * * * //

dimensions      [1 -1 -2 0 0 0 0];


internalField   nonuniform List<scalar> 
449343
(
99330.5
99490.5
99764.7
100057
100233
100112
99448.2
98176.5
96342.5
94148.9
91884.3
89822.8
88157.9
87002.2
86412.7
99313.8
99474.1
99748.7
100042
100217
100095
99430.7
98159.8
96327.9
94136.8
91873.7
89812.1
88146.2
86989.4
86399.3
99299.7
99460.6
99735.9
100029
100204
100079
99413.9
98144.3
96316.4
94130.2
91870.6
89809.2
88141.3
86982.4
86391.1
99287.6
99449.2
99725.6
100019
100192
100062
99395.7
98126.4
96304.4
94125.4
91872.3
89811.7
88141
86979
86385.9
99276.5
99439
99716.4
100010
100181
100043
99373.9
98105.8
96289.8
94120.6
91875.7
89816.3
88142.3
86976.4
86381.1
99265.2
99428.5
99706.8
99999.5
100168
100024
99352.8
98086.3
96276.9
94116.2
91877.8
89819.1
88141.2
86971.2
86373.6
99252.3
99416.1
99694.9
99987.2
100153
100006
99332.7
98066.4
96262.4
94108.6
91872.4
89815.4
88133.5
86960
86360.7
99236.6
99400.5
99679.3
99971.2
100136
99986.9
99308.9
98039.9
96235.8
94088.2
91854.5
89797.5
88114.2
86939.6
86339.6
99217.8
99381.3
99659.5
99950.7
100115
99966.4
99291
98022.3
96215.9
94060.2
91823
89765.3
88083.3
86909.8
86310.4
99196.2
99358.9
99636
99926.6
100093
99944.8
99269.6
97999.3
96186.1
94021.9
91781
89720.9
88042.2
86872
86274.4
99172.7
99334.3
99610
99900.5
100068
99924.5
99250.5
97976.8
96156
93981.7
91733.3
89671.7
87996.4
86830
86234.5
99148.4
99309
99583.3
99873.3
100043
99905.4
99233
97956.9
96128.2
93943.8
91686.5
89622.9
87950.5
86787.5
86194
99124.5
99284.2
99557.3
99846.8
100017
99884.9
99212.8
97935.8
96100.6
93908.1
91643.5
89578.4
87908.2
86747.9
86156
99101.6
99260.7
99532.8
99821.8
99992.7
99862.7
99191.4
97912.8
96073.3
93875.3
91606.6
89540.8
87872
86713.5
86122.7
99080.3
99239
99510.6
99799.3
99970.2
99841.3
99170.1
97890.7
96048.9
93848.3
91577.8
89511.8
87843.7
86686.1
86095.8
99151.2
99359.7
99735.1
100182
100546
100655
100132
98805.8
96726.5
94198.2
91636.5
89375.3
87598.5
86387.7
85776.5
99134.4
99343.4
99719.7
100168
100532
100639
100114
98789.5
96713.5
94188.9
91628.8
89366.6
87588
86375.6
85763.6
99120.3
99330.3
99708.3
100158
100522
100625
100098
98776.1
96705.7
94189
91632.8
89368.3
87585.4
86369.9
85756.2
99108.3
99319.8
99700
100151
100514
100608
100076
98751.4
96694.1
94191.2
91644.5
89377.8
87588.6
86368.2
85752.2
99097.7
99310.8
99693.8
100146
100507
100582
100049
98726.2
96665.1
94193.4
91661.3
89391.5
87594
86367.5
85748.5
99086.9
99301.9
99687.7
100142
100501
100565
100023
98704.7
96658.3
94195.6
91676.7
89404.1
87597.3
86363.8
85741.8
99074.6
99290.9
99678.9
100134
100486
100553
100005
98685
96646.5
94199.5
91695.7
89411.6
87593
86353.9
85729.2
99059.3
99275.8
99664
100120
100471
100533
99978.7
98608.4
96612.5
94176.4
91679.4
89395
87573.8
86333.7
85708
99040.7
99256.5
99643.8
100097
100448
100514
99963.3
98641.3
96598.8
94149.2
91643.7
89359.6
87541.3
86302.5
85677.9
99019.1
99233.4
99617.9
100070
100426
100485
99938.9
98615.1
96564.6
94098.3
91576.9
89302.9
87495.8
86262.5
85640.7
98995.4
99207.7
99588.8
100038
100396
100463
99924.7
98595.2
96528.6
94050.8
91515
89243.2
87445.1
86218.5
85599.6
98971.3
99181.6
99559.7
100007
100366
100452
99912.8
98580.4
96514.2
94006.2
91455.2
89185.7
87395.1
86174.2
85558
98947.5
99156.3
99531.9
99977.7
100337
100432
99897.6
98567
96488.3
93964.5
91402.9
89134.8
87349.8
86133.1
85519
98924.9
99132.7
99506.4
99950.5
100310
100408
99876.1
98542.7
96458.2
93925.9
91359.7
89093.2
87311.7
86097.8
85485
98903.7
99110.9
99483.8
99927.1
100286
100386
99854.9
98520.5
96432.7
93896.5
91328.4
89062.5
87282.6
86069.9
85457.8
98697.6
99016.7
99624.8
100441
101278
101978
101877
100412
97676.1
94268.4
90976.7
88261.6
86241.3
84912.7
84255.7
98680.5
99000.6
99610.4
100428
101267
101965
101860
100398
97667.5
94266.5
90976
88257.3
86233.1
84902.1
84243.9
98666.1
98988
99601.7
100424
101266
101957
101843
100390
97668.1
94285.5
90997.5
88269
86235.6
84899.2
84238.7
98653.8
98978.7
99598.2
100427
101273
101945
101804
100369
97641.5
94307.5
91040
88295.7
86246.1
84901.2
84237.1
98643.4
98972.1
99598.8
100434
101279
101904
101716
100271
97576.5
94346.5
91090.4
88329.1
86260.4
84904.2
84235.6
98633.3
98966.5
99601.8
100443
101294
101876
101676
100254
97579.3
94378
91154.5
88364.9
86271.6
84903.8
84230.3
98621.7
98957.8
99597.3
100449
101277
101874
101651
100230
97568.9
94392.2
91273.9
88396
86276.4
84895.4
84217.8
98607.3
98944.8
99585.6
100441
101274
101873
101663
100172
97534.9
94368.4
91254.6
88380.2
86258.4
84875.9
84196.3
98588.8
98924.1
99562.3
100413
101239
101834
101608
100181
97518
94337.4
91216
88339.2
86221.1
84841.1
84163.9
98568
98900.6
99534.4
100373
101221
101796
101590
100160
97477
94272.4
91045.1
88255.5
86163.6
84797
84124.3
98544.6
98872.3
99496.8
100329
101170
101786
101590
100135
97428.9
94193.4
90933.4
88171.2
86103.5
84748.5
84080.7
98521.4
98845.1
99462.3
100288
101129
101790
101641
100195
97455.7
94114.1
90841.2
88094.6
86044.8
84700.4
84036.8
98498.7
98819.4
99430.6
100249
101087
101767
101643
100179
97445.7
94054.5
90760.4
88028.2
85993.2
84656.4
83995.8
98477
98795.7
99403
100217
101051
101736
101625
100152
97410.8
93999.9
90701.8
87978.2
85951.3
84619
83960.4
98456.4
98774.2
99379.6
100191
101024
101712
101603
100128
97381.6
93964.1
90664.5
87943.9
85920.3
84590.1
83932.4
97838.4
98319.5
99279.5
100693
102420
104164
105282
103557
99364
94109.8
89577.9
86228.1
83915.6
82464.7
81767.8
97820.2
98302.7
99265.7
100683
102413
104158
105261
103547
99359
94119.4
89586.9
86228.7
83910
82455.9
81757.6
97803.7
98289.4
99259.3
100688
102427
104169
105250
103561
99400.7
94184.3
89635.3
86251.5
83917.5
82456.3
81755
97788.9
98279.6
99261.5
100710
102459
104209
105082
103572
99334.8
94320
89742.4
86297.8
83935.1
82462.1
81756.1
97776
98273.5
99270.7
100734
102501
104152
104250
103200
100043
94482
89869.4
86363.1
83956.2
82467.3
81756.2
97764.7
98270.7
99292.5
100802
102572
103337
104128
103169
100089
95687.5
90045.8
86434.3
83977
82467.2
81750.8
97752.2
98265.4
99299.7
100827
101906
103361
104086
103124
100057
95714.6
91275.1
86471.2
83977.1
82455.5
81735.9
97737.9
98255.5
99296.6
100826
101892
103371
104098
103008
100032
95707.8
91239.5
86455.3
83970.7
82440.3
81712.4
97721.2
98233
99264.9
100791
101866
103336
104048
103057
100005
95666.8
91207.8
86407.2
83916.3
82396.8
81677.1
97703.9
98209.6
99230
100736
102502
103270
104024
103052
99962.2
95606.2
89914.9
86308.5
83856.2
82350.7
81636.5
97682.9
98179
99173.6
100632
102395
104037
104116
103058
99926.5
94309.2
89690.7
86186.8
83784.7
82300.4
81591.6
97664.2
98153.8
99133.3
100577
102320
104059
104919
103393
99135.2
94108.9
89525.8
86080.7
83720.4
82250.3
81546
97645.3
98129.5
99096.5
100519
102252
103986
105053
103348
99170.7
93942.3
89385.4
85998.5
83664.3
82203.9
81503.2
97626.5
98107.6
99067.8
100480
102204
103940
105031
103302
99100.4
93847
89304.6
85940.6
83619.5
82164.7
81466.3
97607.6
98087.2
99044.3
100453
102172
103909
105015
103276
99069.1
93801.5
89259.2
85902.8
83587.1
82134.8
81437.5
96371.5
97030.2
98395.8
100559
103576
107350
111438
108998
101914
92987.6
86737.3
82864.1
80414.7
78962.6
78293.2
96350
97010.3
98379.8
100550
103576
107356
111420
108992
101934
93022.8
86757.5
82867.3
80410.4
78955.3
78284.5
96327.4
96991.7
98370.2
100558
103614
107406
111434
109011
102022
93123.1
86825.1
82892.8
80419.3
78958.2
78284.4
96304.5
96975.5
98373
100620
103780
107601
109090
109094
103576
93660.8
87059.7
82961.3
80439.8
78966.8
78287.9
96281.3
96959.4
98384.5
100673
103871
106062
109051
109025
103687
95898.2
87280
83027.6
80456
78966.5
78286.9
96262.3
96957.6
98433.2
100884
102999
106241
109071
108903
103662
96139.5
89458.4
83150
80456.2
78968
78278.8
96241.1
96936.9
98416.8
100267
103039
106333
108103
108176
103941
97112.3
89670.1
84956.9
80390.9
78926.7
78252.7
96229.2
96932.9
98473.9
100250
103065
106350
108112
108136
103950
97144.6
89731
84998.9
80483.2
78901.7
78232.7
96212.5
96906.4
98382.8
100220
103036
106321
108068
108115
103885
97095.3
89661.4
84941.3
80319.2
78858.8
78184.9
96208.4
96904.7
98378.6
100826
102930
106194
108083
108092
103825
96069.4
89410.5
82994.1
80312.5
78837.5
78153.1
96196.7
96871.5
98295.1
100580
103770
106006
108910
108758
103438
95842.3
87059
82818
80262
78784
78109.2
96191.3
96862.3
98256.4
100499
103653
107462
108902
108901
103479
93415.2
86811.6
82718.8
80205.1
78739.7
78065.1
96182.1
96844.5
98219.9
100403
103450
107232
111248
108834
101787
92865.2
86556.5
82622.8
80152.2
78694.1
78022
96170.8
96829.7
98196.4
100362
103381
107151
111202
108766
101675
92744.3
86464.7
82568
80109.5
78654.7
77984.4
96155.8
96812.9
98175.4
100334
103344
107109
111183
108730
101620
92675.7
86410.8
82529.7
80077.4
78624.6
77955
94040.2
94829.4
96525.9
99409.5
103959
111073
116910
122674
109492
88637.9
81261.9
77623.6
75475.4
74321.4
73825.9
94012.5
94802.9
96502.9
99395.9
103963
111081
116903
122664
109490
88668.2
81277.8
77621.5
75471
74315.9
73819.5
93977.2
94769.6
96474.9
99375.4
103971
111125
116905
122661
109492
88694.1
81292
77615.6
75470.6
74319.9
73822.8
93937.3
94737.9
96463.9
99427.7
104355
108947
117015
122773
109495
93131
81483
77584.8
75489
74332.2
73829.7
93889.2
94686.6
96419.9
99481.3
103108
109216
117316
120318
110825
93951.6
84780.5
77569
75422.3
74313.8
73825.9
93851.6
94645.5
96463.4
99071.2
103223
108284
115509
119253
110891
96264.4
85020.8
79989.9
75364.4
74272.1
73808.5
93810.6
94592.3
96440.9
99101.3
103365
108301
114574
119205
111345
97241.4
86734.3
80060.1
75273.7
74205.4
73770.5
93787.7
94555.5
96459.1
99152.3
102705
107792
114581
119162
111294
97240.5
86708.9
80053.2
77171.3
74124.8
73735
93786.6
94568.8
96419.5
99112.4
102683
108252
114558
119127
111239
97174.2
86635.9
79948.8
75176
74125.4
73696
93806.3
94599.6
96415.2
98999.4
103284
108255
114490
119114
111196
97055.8
86565.6
79874.7
75188.6
74122.5
73669.2
93817.1
94613
96344
99404.9
103028
109198
115300
120079
110648
95845
84682.8
77304.4
75194.7
74109.4
73632.2
93839.4
94639.1
96362.6
99320.2
104243
108861
116903
122611
109281
93057.6
81185.4
77303
75224
74086.7
73592.6
93849.9
94640.7
96342.8
99239.8
103827
110970
116744
122461
109268
88414.4
80999.5
77324.5
75190.8
74043.6
73549.6
93853.2
94642.3
96339.6
99228.2
103789
110896
116697
122442
109259
88386.2
80972.9
77311.5
75160
74006.4
73511.3
93845.2
94632.9
96326.2
99205
103747
110852
116678
122422
109219
88324.9
80926.8
77279.5
75130.6
73976.3
73481.1
90614.2
91388.6
93101.7
96176.4
101336
108354
125061
155385
114027
81312.9
71157.5
69740.1
68899.9
68586.9
68483.4
90577.6
91351.8
93065
96140.3
101310
108335
125027
155355
113968
81291.3
71142.1
69721.1
68896.7
68585.9
68481.7
90521.9
91289.5
92993.5
96045.5
101180
108307
124940
155305
113952
81322.2
71097.8
69704.6
68901.4
68595
68492.7
90452.5
91216
92914.1
95817.1
100562
108674
124942
155170
113787
81513.4
74576.3
69497.5
68899.6
68605.5
68508.4
90359.1
91096.1
92697.3
95879.6
100566
107775
122011
155032
114806
85512.3
74480.9
71819.9
68747.4
68584.9
68509.1
90268.5
90927.1
93181.9
95921.6
100301
107734
120584
150012
119565
87660.2
76854.7
71807.7
70550.7
68502.5
68491.1
90211.2
90863.3
93162.6
95903.4
100304
107293
120475
149911
119628
87818.3
78184.5
73418.9
70534.8
68483.7
68469.9
90169
90820.3
93207.6
95912.5
100290
107253
120423
149865
119626
87828.1
78174
73389
70511.8
68464.9
68413.5
90192
90843.4
93153.7
95924.1
100301
107242
120410
149837
119485
87661.1
78041.9
73297.5
70398
68391.9
68386.7
90235.6
90894.4
93153.8
95850.2
100284
107254
120439
149841
119294
87397.6
77830.3
73150.2
70348.3
68333.7
68337.5
90303.2
91039.2
92641.5
95813.3
100496
107711
120530
149913
119181
87163.2
76491.8
71478.6
68479.1
68357.8
68299.3
90375.3
91136.9
92830.5
95728
100354
108491
121944
154928
113685
85303.3
74173.4
69165.4
68611.4
68344.2
68258.7
90419.3
91186.5
92888.5
95939
101065
108186
124809
155058
113678
81092.9
70780.8
69389.5
68602.5
68307.4
68211.2
90445.2
91217.9
92927.8
95998.1
101164
108192
124836
155138
113775
81069.1
70828.5
69402
68577.4
68270.3
68168.7
90447.3
91220.5
92930.9
96001
101154
108157
124851
155148
113766
81005.6
70814.9
69391.6
68550.2
68238.4
68135.9
86019.2
86526.6
87636.7
89610.2
92749.3
99634
107181
104639
23444.5
51744.1
56587.9
59357.9
61087
62173.8
62665.3
85974
86479.1
87585.6
89551.3
92700.2
99580.6
107135
104536
23080
51688.8
56536.3
59356.1
61102.4
62184.2
62673
85898.9
86391.8
87488.3
89457.3
92556.3
99464.2
107028
104434
22845
51781.4
56598.2
59441.2
61159.3
62222.1
62705.4
85798.4
86261.8
87334.7
89148.7
93825.7
99047
106760
104285
23137.6
52118
58235.6
59737.1
61277.1
62280.8
62756.6
85664
86090
87069.1
90278.9
93553.4
99431.6
107514
104094
23969.6
55824.2
60190.6
61344
61448.7
62363.7
62806.9
85516.2
85913.9
88235.5
90131.3
93994.3
99633.5
107299
103809
24691.2
56980.4
61702
61718.8
62833.9
62477.4
62842.5
85452.8
85837.3
88199.2
90027.6
94216.9
99545
107174
103666
25532.3
57775.7
62307.3
62932.5
62888.6
62548.8
62874.8
85420
85790.8
88151.1
90661.2
94196.6
99498.4
107117
103586
25672
57806.3
62406.1
63512.4
62919.4
62557.8
62844.2
85441.4
85825
88149.8
90644
94189.8
99492.5
107115
103617
24906.7
57356.8
62091.2
63335.7
62771.5
62445.3
62785.2
85497.3
85891.7
88193.4
90025
94191.4
99526.9
107169
103712
24200.7
56615.5
61534.9
62482.6
62588.6
62291.7
62677.8
85630.3
86056.9
87034.1
90152.8
93979.5
99601.1
107283
103858
23398.9
55799.6
60840
61024.3
61153.5
62121.1
62586.1
85749.8
86212.8
87282.4
89092.9
93655.3
98661.4
106410
104154
23136
53548.3
57799.8
59365.8
60973
62010.3
62500.5
85828.7
86320.8
87414.8
89376
92471.9
99156.2
106765
104247
22709.9
51496.4
56241
59120.5
60854.8
61931.5
62422.4
85877.1
86381.4
87485.9
89448.7
92593.6
99420.4
106943
104345
22924.7
51484.3
56237.1
59036.7
60784.2
61871
62362.8
85889.4
86396.2
87504.5
89475.6
92612
99468
106998
104400
22937.6
51422.9
56244.6
59011.1
60741.3
61829.9
62322.6
80507.4
80510.9
80495.3
80461.5
80713.1
85080.5
89015.1
102186
10753.3
30991
42956.4
49402.6
53601.5
56052.3
57148.3
80458.6
80459.3
80442
80406.2
80677
85025.1
88963.5
101970
4013.8
31035.6
42960.7
49461
53645.7
56078.3
57168
80379.3
80371.9
80352.2
80360.2
80610.8
84906.3
88848.9
101869
3635.8
31254.1
43176.1
49639.4
53763.8
56159.7
57229.8
80276.9
80241.9
80228.2
80374.7
83341.1
84798.2
88606.2
101720
3011.93
31747.4
43853.1
50195.4
54022.3
56309.1
57336.7
80151
80088.5
80119.8
82335.9
83331.2
86574.4
89612.2
101679
2477.2
32638.8
45275.4
51470.9
54421.9
56524.1
57471.1
80020.6
80016.1
81733.8
82218.8
84546.3
87321.9
89442.2
101275
9356.05
36026.9
46982.9
52092.4
55463.3
56776.7
57597.8
79969.2
79963.6
81657.3
82155.3
85158.6
87204.3
89331.4
101152
2232.3
40311.4
48393.1
52963.7
55640.2
56891.4
57669.9
79945
79929.1
81596.3
83175.9
85095.1
87147
89278.1
101047
2888.91
39007.4
48527.2
53312.9
55678
56901.5
57652.7
79968.6
79962.2
81598.1
83161
85092.1
87142.8
89274.2
101084
21479.3
37533.7
47852.9
53061.1
55527.4
56774.1
57575.7
80018.5
80010.1
81653.6
82180.8
85133.8
87194.6
89322.5
101148
4966.42
35677.2
46877
52322.6
55260
56572.2
57426.3
80146.6
80085.2
80113
82237.6
84564.5
87317.8
89426.9
101257
2726.75
33036.7
45631.3
51203.3
54100.6
56274.6
57247.6
80265.1
80230.9
80219.1
80354.1
83342.8
84870.4
88688.9
101665
2299.57
31527.3
43816.9
49823.8
53717.9
56040.8
57084.5
80351.2
80343.8
80324.6
80331.7
80571.8
84790.4
88639.6
101650
2488.96
31024.9
42834.5
49335.4
53471
55879.5
56956.5
80407.8
80408.8
80391.2
80352.5
80618.7
84895.4
88797.3
101777
4001.79
30777.6
42667.4
49156.5
53344.2
55780.2
56871.7
80425.7
80429.4
80413.5
80377.6
80626.1
84959
88869.7
101845
2332.75
30684.3
42627.8
49079.2
53276
55725.6
56821.7
74754
74197.1
73044
71229.9
71142.5
70662.6
73565.3
2312.72
23113.9
35443.4
43019.6
48281.9
51451.7
52925.6
74704.3
74145.4
72992.5
71183.9
71091.6
70613.2
73519.2
2297.72
23231
35489.2
43104.5
48331.3
51481.5
52947.7
74630.2
74070.7
72909.4
71120.7
71076.7
70566.4
73420.2
2292.33
23134.7
35747.2
43264.1
48448.8
51570
53013.9
74548.1
73981.5
72813
71176.5
71406.3
70431.9
73199.2
2298.13
23531.5
35364.7
43763.8
48700.7
51737.9
53131.9
74468.8
73894.9
72854.5
73186.8
71910.8
72412
73764.3
2296.02
22612.8
35846.6
44063.9
49051.8
51967.5
53285
74397.1
73946.8
74407.2
73380.7
73243.3
73320.4
73630.6
2293.14
25949
37181.9
44681.7
49457.8
52140.3
53433.4
74368.6
73937.2
74299.7
73416.6
73995.6
73303.3
73560.4
2585.3
32896.6
38995.7
45214.8
49691.7
52221.1
53493.5
74354.1
73925.7
74260
74329.7
74046.1
73283.4
73524.5
4014.29
33009.7
39373.2
45474.1
49692.7
52223.7
53471.6
74381.9
73950.8
74261.5
74341.3
74044.7
73274
73506.8
2281.4
29230.7
38601.7
45223.5
49559.8
52110.7
53401.3
74418.7
73964
74322.4
73440.9
73990.3
73285.1
73530.1
82831.9
29740.9
37636.2
44632.9
49338.5
51950.1
53267.3
74501.7
73930.2
72890.3
73162.4
73213.4
73302.5
73605.7
2468.72
24537.9
36165.9
43950.7
48774.9
51734.4
53072.9
74582.8
74017.8
72858
71211.7
71477
70525.7
72869.5
2298.99
22399.1
35367.1
43466.8
48432.2
51492
52897.4
74655.7
74097.8
72939.5
71152.1
71087.7
70487
73239.2
2309.9
22997.3
35492.7
43013.3
48190.6
51316.5
52763.5
74711.8
74155
73004.7
71193.3
71119
70571.8
73404
2298.44
23057.1
35270.4
42848.7
48066.6
51212.9
52677.9
74732.7
74178
73028.1
71213.1
71091.4
70605
73481.6
2302.93
22963.8
35183.9
42748.6
47994.7
51156.9
52627.7
69643.4
68559.3
66297.7
62378.7
60492
53977.2
50505.6
2302.3
2295.86
21151.1
32700.9
40480.2
45861.7
49165.3
50747.3
69586
68498.2
66230.6
62304.3
60424.3
53916
50470.8
2351.68
2295.72
21185.2
32699.1
40528.5
45880.4
49176.3
50753.2
69500.3
68410.7
66118.1
62155.1
60330.4
53804.9
50396
2330.92
2294.19
18234.9
32945.1
40609.4
45938.2
49219.3
50783.3
69408.1
68317.8
65950.8
62029.3
60209.5
53626
50329.1
2393.49
2300.1
18851.6
31062.4
40795.9
46057.6
49309.5
50843.4
69338.8
68231.1
65847.3
64768.4
60063
56251
51991.5
2270.12
2288.43
17634.5
30538.3
39886.6
46203.3
49438.2
50922
69288.2
68224.2
67684.9
64675.7
61829.5
57438.2
51963.5
2266.38
2285.37
18628.1
30930.5
40210.7
45745.3
49493.3
51001.2
69257.6
68192.5
67634.6
64563.3
62620.7
57417
51963.5
3194.95
2289
20001.9
32024.5
40126.8
45906.4
49503.9
51016.1
69246.8
68189
67603.1
65830.5
62623
57419.2
52013.6
2115.03
28062.6
22172
32683.7
40180.7
45920.5
49480.9
50977.5
69287.6
68221.9
67626.8
65855.7
62620.7
57392.8
51927.7
2308.93
2250.34
20831.5
32341.6
40026.5
45821.4
49407.6
50928.5
69341.4
68275.2
67707.8
64636.7
62649.8
57386.6
51896.7
2352.75
2332.67
20262.9
31543.8
39774.5
45643.5
49328.8
50850.7
69418
68311.7
65932.4
64786.3
61888.9
57437.5
51949.6
2894.8
2282.36
18855.6
30590.9
39767.4
45980.5
49236.5
50732.8
69500.8
68413
66060
62142.7
60193.7
53611.4
50248.7
2765.27
2285.19
18142.6
31076.2
40592.3
45841.7
49098.6
50637.5
69591.7
68507.5
66223.8
62268.7
60336.7
53751.7
50287.4
2322.29
2295.32
18610.8
32798.7
40425.8
45729.6
49004.5
50566.3
69664.7
68582.9
66326.1
62406.7
60490.6
53916.1
50418.6
2319.01
2294.71
21299.1
32613.9
40357
45671
48950.5
50521.1
69695.7
68617.5
66367.4
62458.4
60541.5
54011.9
50531.3
2328.44
2294.65
20831.2
32539.3
40276
45627.2
48915.1
50489.3
65985.5
64456.6
61231.9
55610.1
45801.3
37712.8
15556.1
2361.11
2301.45
22635.7
33543.6
40954.5
46146.1
49315.3
50839.8
65907.8
64371.2
61126.6
55471.5
45684.7
37566.1
15508.9
2295.46
2300.6
22445.7
33438
40928.7
46112.1
49291.4
50816.9
65784.2
64239
60958.8
55247.3
45549.3
37173.2
15557.5
2285.32
2299.8
18605.7
33288.5
40897.8
46077.2
49261.2
50788.5
65635.9
64091.7
60707.9
54985.3
49920.6
36768
15586.2
2253.79
2301.21
18197.9
30145.3
40810.3
46029.6
49230.2
50758.9
65511.1
63951
60499.9
57601.3
49721.8
40298.4
21571.4
2237.43
2282.25
16057.4
28790.9
38705.5
45950.4
49216.7
50726
65425.5
63821.7
62324.9
57443.8
51809.2
41972.7
22294.1
2214.47
2332.91
16401.8
28434.3
38709.3
44571.5
49156.7
50703.1
65361.6
63735.3
62283.4
57278.7
52719
41975.5
22388
2295.79
2284.9
17246.1
29195.8
38006.1
44577.1
49085.9
50655.8
65348.2
63726.5
62255.3
58729
52634.2
42039.5
22892.8
2296.81
2316.8
20364.4
30187.8
37822.5
44541.8
49026.9
50602
65413.1
63788
62292.2
58755.4
52623.3
41944.2
22511
2308.28
1596.76
21356
29974.9
37687.1
44466.8
48990.7
50573.1
65520.4
63923
62410.8
57403.1
52741.7
41887.5
22291.4
2292.45
2294.37
17340.3
28833.2
37713.4
44388.8
48998.2
50562.8
65648.9
64094.1
60665.9
57730.9
51915.1
42007.1
22295.7
2162.71
2304.55
16407
28199
38440
45742.2
49033.2
50556.4
65799.3
64265.1
60909.7
55221.7
50028.6
36927.6
17165.9
2303.68
2299.85
16923
30042.5
40644.3
45845.3
49049.3
50581.3
65954.4
64424
61169.1
55501.2
45819.5
37157.2
15404.8
2262.52
2300.84
18641.5
33243
40775.3
45918
49087.4
50608.6
66070
64547.5
61329.8
55717.5
45931.1
37606.4
15538.9
2279.14
2301.2
22548.5
33430
40829.3
45963.4
49114.9
50628.6
66123.6
64607.3
61407.9
55832.5
46011.6
37892
15569.1
2295.48
2300.44
22297.3
33518
40818
45975.4
49117.8
50628.9
64454.4
62782.7
59151.8
53461.4
42384
33815.1
3168.83
2329.66
2381.34
26823.7
37230
44156.3
48897.9
51707.3
53053.7
64346.7
62658.5
59004
53168
42306.6
33170.6
3040.28
2297.89
2506.35
26456.1
37056
44057.5
48807.4
51646.8
53001.8
64171
62456.9
58780.3
52639.1
42813
31506.1
5729.16
2291.65
2302.82
20471
36793.9
43926.6
48667.4
51547.2
52919.2
63949.4
62228.1
58465.5
52240.1
45110.4
30418.5
5752.25
2272.34
2299.42
20289.3
32520.6
43632.2
48466.4
51406.2
52809.8
63747.7
62015
58231.8
53827
44674.1
32773.4
14356.6
2256.71
2296.46
17101.6
30281
40490.6
48193.3
51255.6
52678.7
63602.1
61829.9
59302.6
53559.2
46081.2
33748.1
14302.6
2232.76
2300.32
16882.7
29125.1
40123.3
45992.5
51094.2
52560.2
63501.8
61708.1
59222.1
53366.2
46686.7
33669.2
14488.1
2311.93
2199.04
17308.8
29532.5
38720.2
45772.6
50936
52449.7
63489.3
61693.7
59202.3
54469.3
46553.8
33727.1
17005.3
2291.15
62802.8
26558.7
30666.8
38159.1
45621.1
50825.2
52368.4
63579.7
61792.6
59267.2
54504.9
46532.3
33465
14519.5
2287.75
2243.75
17169
29502.9
37897.1
45557
50822.3
52359.8
63747.7
61994.2
59424.9
53593.4
46715.2
33389.6
13801.4
2312.79
2296.62
16295.7
28498.9
38292.9
45626.4
50917.8
52415.7
63956.2
62241.9
58523.1
54013.5
46314.3
33824.1
14316.1
2271.3
2289.43
16586
28670.2
39942.4
47960
51069.9
52516.6
64194.1
62501.5
58801.7
52687.3
45333.2
31117.2
13952.4
2281.23
2293.1
18210
32182.4
43461.4
48294
51244.9
52653.7
64428.4
62747.5
59131.1
53091.7
43462.5
30955.4
4879.49
2283.93
2301.74
20643.8
36843.8
43859.4
48555.8
51412.3
52775
64599.3
62939.4
59331.9
53627.7
42699.7
33806.6
3093.42
2293.69
2713.89
26751.8
37174.1
44038.3
48724.9
51521.9
52858.8
64685.3
63034.9
59441.4
53905.1
42644.3
34595.6
2681.41
2291.34
2349.52
26974.7
37338.2
44116.4
48805.6
51567.8
52893
65442.4
64038.6
60995.7
56378.7
46683.6
36357.1
2306.11
2300.02
19101.9
38744.2
44703.7
50352
53975.1
56068.2
57089.4
65297.4
63867.5
60774.4
55966.8
46322.1
35575.9
2305.25
2299.55
19978.1
38200.5
44499.1
50166.8
53836.8
55981.8
57018.3
65058.4
63583
60425.4
55202.7
47214.7
34090.1
6880.5
2296.13
9850.47
29267.8
44185.4
49870.4
53598.1
55836.3
56901.2
64756.6
63225.9
59919.4
54462.9
46818.4
32723.3
8250.39
2282.31
2304.06
27104.3
38825.2
49373
53261.6
55623.3
56743.1
64470
62887.4
59471.7
54432.7
45625.7
33003.6
14340.4
2245.81
2302.26
21435.9
35398.2
45362.7
52858.6
55374.2
56551.4
64252.7
62626.3
59500.8
53808.7
45722.4
32819.1
13835
2287.65
2305.4
19800.1
32919.7
44434.5
49936.3
55152.8
56367.7
64117.8
62458
59307
53445.6
45706.5
32269.9
13573
2327.34
2295.33
17971.5
32119.8
42093.2
49430
54922.8
56207.5
64106.8
62439.6
59260.5
54001.7
45463.8
32051.3
13055.4
2068.29
2194.9
20780.2
32415.2
40901.5
49126.5
54751.5
56093.7
64225.2
62580.7
59373.9
54078
45487.9
31811
12907.1
2296.95
2344.08
3673.93
30781.4
40577
49073.2
54777.1
56102.4
64455.3
62863.8
59630.1
53905.6
45872.5
31879.9
9860.88
2298.72
3793.12
14392.7
30474.4
41586.7
49329.1
54947.2
56210.5
64754.6
63213.4
59908.8
54603.2
46322.6
33135.9
13689
2315.58
3750.58
18975.7
32136.7
44409.4
52579
55176.5
56389.3
65086.7
63608.9
60423.7
55200.5
47085
33466.8
14122.4
2288.41
2300.67
23218
38046.8
49222
53106.2
55479.4
56604.1
65404.3
63982
60943.8
55931.3
48379.5
34828.9
8999.82
2264.32
5250.49
28296.2
44395.3
49894.8
53544.1
55740.7
56790
65633.1
64250.7
61253
56640.9
47047.7
37061
2307.15
2302.33
19660.3
38656.7
44739.8
50258.1
53829.4
55908.5
56918.2
65749.7
64391.7
61429.6
57013.1
47320.3
37733.6
2307.79
2302.56
19840.5
39344.7
44994.3
50456.6
53971.4
55987.6
56977.2
68652.6
67862.7
66084
64223.4
59033.2
55876.6
55051.3
5440.39
51433.7
54966.7
56528.9
59464.7
60973.5
61973.7
62513.1
68474.4
67634.1
65780.8
63581.9
58122.9
54444
48528
7231.14
49600
54178.1
56155.2
59162.8
60809.6
61878.5
62438.1
68178.3
67258.8
65326.7
62258.5
58261.5
46797.1
29290.1
2357.58
25452
44595.4
55789.2
58630.7
60529
61724.1
62316.3
67800.3
66768.3
64556.1
61040.4
54433.9
43797.3
23577.3
2375.06
13217
41861.8
49761.4
58029.4
60141.4
61503.3
62154.8
67434.6
66286
63849.7
59355.7
52268.2
40886.5
20895.5
2286.76
11012.8
32517
45244.1
53406.9
59721.7
61228.9
61960.7
67153.8
65960.1
62886
58123
50634.6
38129.5
17060.7
2309.31
10565
27275.9
40836.2
52015.7
56273.8
61013.6
61768.7
66989.2
65747.8
62446.9
57534.7
49776.3
36603.2
15668.1
2270.3
2303.54
22412.5
37414.6
48477.1
55548.6
60751.7
61595.7
66978.2
65729.1
62374.7
57439.6
49451.2
36426.4
16415.3
2291.76
2384.55
14265.9
34951.2
46307.7
55087.7
60572.4
61460.2
67120.5
65909.2
62538.2
57609.7
49657.3
36569.4
16249.4
2278.47
2227.54
2707.75
36184.5
46030
55038.8
60594.6
61475.7
67399.5
66263.4
62920.1
58348.8
50421.5
37086.5
11754.5
2296.24
2291.77
14017.3
35834
47938.4
55467.2
60785.9
61599.5
67770.5
66695.7
64446.4
59377.2
52041.6
39721.5
17631.2
2312.92
6354.28
25409.4
39717.9
52089.2
59421.1
61025
61797.8
68181.6
67234.9
65223.6
62128
54784.6
45061.4
24228.6
2301.19
11894.4
35736.3
48804.9
57948.9
60023.9
61380.6
62030.5
68570.6
67731.2
65988.6
63321.8
60188.7
48138.2
31257.5
2376.58
28024.9
44810.9
56247.5
58785.3
60540.9
61666
62231.9
68850.1
68081.9
66371.6
64541.7
59550.7
57559.3
59068.6
14421.4
53724.9
55669.6
56748.5
59419.4
60877.9
61850.5
62372.1
68996.3
68274.8
66617
65106.8
60358.1
58515
63640.4
13219.2
55570.2
56401.5
57176.6
59748.7
61051.2
61942.7
62438.5
73264.2
73259.6
73023.2
74584.4
77231.7
82774.5
123322
150304
98981.5
76073.7
71482.4
69822.1
68857.3
68673.5
68660.4
73073.1
72988.9
72666.9
73836.6
75798.4
81265.2
119875
134009
95712.6
74991.3
70792.7
69474.5
68710.1
68591.4
68601.8
72754.1
72534.9
72173.3
72021.4
73525.9
71735.5
91633.6
116968
90080.4
70175.1
69485
68809.9
68486.6
68471.5
68515.3
72339.2
71970.1
71222.4
70455.2
67111.8
66659.1
78063
104246
74610.3
66708.7
65191.8
68245.4
68204.7
68326.3
68408.4
71939.5
71417.5
70383
67172.6
64066.2
58026
48961.3
52665.3
42572.9
55014.9
60858.4
64504.2
67877.5
68120.9
68281.1
71642
71057.2
68429.9
65705.4
60471.4
51103.9
26480.7
2274.87
2304.18
44438
55802.6
63330.6
64847.4
67945.6
68149.3
71471.5
70841.4
67903.7
65048.7
58738.5
48001.4
20383.5
2290.89
2312.19
19526.1
48778.7
59072.7
64144
67746.5
68015
71461.5
70830.8
67811.3
64196.2
58391.5
48279.4
28575.7
2638.15
14852.7
3080.38
42083.5
55884.4
63673.6
67604.1
67913.6
71605.9
71011.4
68011
64451.9
58851
49390.8
31182.1
2269.6
2249.39
2252.3
39653.7
55336.3
63567.2
67594.3
67904.5
71888.7
71369.4
68472.2
66097.5
60016.6
51281.1
33045
2344.82
2317.8
13223.6
45114.6
58233.7
63953.3
67725.3
67982.3
72270.4
71834.4
71009.5
67221.8
62678.3
55550.6
41010.7
2287.56
8701.05
43462.7
53983.4
63202.7
67600.2
67928.5
68121.7
72707.7
72434.1
71916.1
71557.6
67402.1
67157
63865.1
65214.2
54059.7
60140.9
64540.3
68278.7
68140.7
68224.4
68293.8
73121
72985.6
72807.8
73030.2
75132.4
73523.3
88684.9
112708
86320
70821.5
70037.5
69038.9
68540.5
68434.3
68443
73414.6
73407.5
73212.3
74684.9
77108.6
81922.7
118267
137111
97467.8
76115.3
71517.4
69793.8
68809.2
68583.5
68547.8
73569
73635.3
73500.8
75317.9
78424.2
83433.6
123244
154680
100579
77097.4
72205.6
70132.4
68951.6
68658.4
68596.4
78145.2
78739.4
79585.2
82274.7
88627.7
91563.9
108540
123039
98328.3
88755.6
82887.6
78463
76152.5
75138.5
74688.6
77985.8
78501.2
79286.8
81880.5
87597.4
90382.9
107974
118238
97971.7
87652.3
82437
78296
76084.4
75103.6
74671.4
77722.2
78074.3
78906.9
80624.6
84946.2
87550.8
98065.1
110719
97340.4
87381.8
81184.6
77896.1
76001.4
75065.4
74664.7
77360.9
77580.7
78077.5
79442.1
79951.6
85173
96894.6
114881
98893.8
86215.9
79859.3
77650.8
75948.2
75066.4
74670.9
77008.3
77090.1
77320.2
76179.2
77136.1
78362.1
85347.7
120734
98458.6
85482
79010.6
76197.1
75887
75015.1
74670.5
76758.6
76715.3
75163.2
74889.9
73419.2
71787.3
69784.8
70707.4
80377.6
105798
79260.8
75948.4
74321.4
74963.6
74656.9
76615.4
76524.1
74743.3
74244.9
71167.2
68431.4
59256.3
2295.25
2280.35
79804.9
74787.4
73789.8
74051.8
74895.6
74628.7
76607.2
76517.7
74676.3
72939.1
70869.9
68241.7
62875.6
45810.9
26402.5
27578.1
67282.9
71345
73732.2
74826.5
74577.6
76720.3
76657.6
74837.5
73178.9
71346.5
69397.4
65369.5
55845.7
16965.1
39858.9
66462.9
70764.7
73598.4
74772.5
74530.8
76946.5
76951.9
75208.7
75075.9
72442.8
71703.8
67134.8
34183
63507.7
67573.9
70845.7
72848.2
73754
74790.9
74507.9
77255.7
77387.6
77739.6
76120.1
75313.4
75708.9
81483.4
107920
98361.8
84542.1
76745.5
75683.7
75740.6
74869.4
74520.9
77629.7
77900.4
78521.5
80039.6
79742.6
84370.3
92271.9
112185
96695.3
87584.5
80620.1
77887.5
75942.1
74976.1
74554.7
77973.1
78361.8
79251.3
80979.2
85314.1
86244.5
95160.8
104867
94127.4
86711.2
81571.4
78081.5
76034.3
75013.8
74578.7
78204.2
78749.1
79562.9
81996.1
87760.1
89494.4