/*--------------------------------*- C++ -*----------------------------------*\
| =========                 |                                                 |
| \\      /  F ield         | OpenFOAM: The Open Source CFD Toolbox           |
|  \\    /   O peration     | Version:  v2012                                 |
|   \\  /    A nd           | Website:  www.openfoam.com                      |
|    \\/     M anipulation  |                                                 |
\*---------------------------------------------------------------------------*/
FoamFile
{
    version     2.0;
    format      ascii;
    class       volScalarField;
    location    "0.01";
    object      p_rgh;
}
// * * * * * * * * * * * * * * * * * * * * * * * * * * * * * * * * * * * * * //

dimensions      [1 -1 -2 0 0 0 0];


internalField   nonuniform List<scalar> 
449343
(
99193.2
99353.2
99627.3
99919.9
100096
99974.7
99310.8
98039.2
96205.2
94011.6
91747
89685.5
88020.6
86864.8
86275.4
99196.1
99356.4
99631
99923.8
100099
99977.1
99313
98042.1
96210.2
94019
91756
89694.4
88028.5
86871.7
86281.6
99201.6
99362.5
99637.8
99931.1
100106
99980.9
99315.8
98046.2
96218.3
94032.1
91772.5
89711.1
88043.2
86884.3
86293
99209.1
99370.7
99647.1
99940.4
100114
99983.2
99317.2
98047.9
96225.9
94046.9
91793.8
89733.2
88062.6
86900.5
86307.4
99217.6
99380.1
99657.6
99950.8
100122
99983.8
99315.1
98047
96230.9
94061.7
91816.8
89757.5
88083.4
86917.6
86322.3
99225.9
99389.2
99667.6
99960.2
100129
99984.9
99313.5
98047.1
96237.7
94077
91838.5
89779.9
88101.9
86932
86334.3
99232.6
99396.5
99675.3
99967.6
100134
99986.5
99313.1
98046.8
96242.8
94089
91852.8
89795.8
88113.9
86940.4
86341.1
99236.6
99400.5
99679.3
99971.2
100136
99986.9
99308.9
98039.9
96235.8
94088.2
91854.5
89797.5
88114.2
86939.6
86339.6
99237.5
99400.9
99679.1
99970.3
100135
99986
99310.6
98041.9
96235.5
94079.9
91842.6
89784.9
88102.9
86929.4
86330
99235.5
99398.2
99675.2
99965.9
100132
99984.1
99308.8
98038.5
96225.3
94061.1
91820.3
89760.1
88081.5
86911.3
86313.6
99231.6
99393.2
99668.9
99959.3
100127
99983.4
99309.3
98035.6
96214.9
94040.6
91792.2
89730.5
88055.3
86888.9
86293.4
99226.9
99387.5
99661.8
99951.8
100121
99983.9
99311.5
98035.4
96206.7
94022.3
91764.9
89701.4
88029
86866
86272.5
99222.6
99382.3
99655.4
99944.9
100115
99983
99310.9
98033.9
96198.7
94006.2
91741.6
89676.5
88006.3
86846
86254.1
99219.4
99378.4
99650.5
99939.5
100110
99980.4
99309.1
98030.5
96191
93993
91724.3
89658.5
87989.7
86831.3
86240.4
99217.6
99376.4
99648
99936.6
100108
99978.7
99307.5
98028
96186.3
93985.6
91715.1
89649.1
87981.1
86823.5
86233.2
99013.9
99222.4
99597.7
100045
100409
100518
99994.4
98668.4
96589.2
94060.8
91499.1
89238
87461.2
86250.4
85639.1
99016.7
99225.7
99602
100050
100414
100521
99996.7
98671.8
96595.8
94071.2
91511.1
89248.9
87470.3
86257.9
85645.8
99022.2
99232.2
99610.2
100060
100424
100527
100000
98678
96607.6
94090.9
91534.7
89270.2
87487.3
86271.8
85658.1
99029.9
99241.3
99621.5
100073
100435
100529
99997.2
98672.9
96615.6
94112.7
91566
89299.3
87510.2
86289.7
85673.7
99038.8
99252
99635
100087
100449
100523
99990
98667.3
96606.2
94134.6
91602.5
89332.6
87535.1
86308.6
85689.6
99047.7
99262.6
99648.4
100103
100462
100526
99984.1
98665.4
96619.1
94156.4
91637.4
89364.8
87558
86324.6
85702.5
99055
99271.2
99659.2
100114
100466
100533
99985
98665.3
96626.9
94179.8
91676.1
89392
87573.3
86334.2
85709.6
99059.3
99275.8
99664
100120
100471
100533
99978.7
98608.4
96612.5
94176.4
91679.4
89395
87573.8
86333.7
85708
99060.3
99276.1
99663.4
100117
100468
100533
99982.9
98660.9
96618.5
94168.8
91663.3
89379.2
87560.9
86322.1
85697.6
99058.3
99272.6
99657.1
100109
100466
100525
99978.2
98654.3
96603.8
94137.5
91616.1
89342.1
87535
86301.7
85679.9
99054.3
99266.5
99647.7
100097
100454
100522
99983.6
98654
96587.5
94109.6
91573.8
89302.1
87503.9
86277.3
85658.4
99049.7
99260
99638.1
100086
100444
100530
99991.3
98658.9
96592.7
94084.6
91533.7
89264.1
87473.6
86252.6
85636.4
99045.6
99254.4
99630
100076
100436
100530
99995.7
98665.1
96586.4
94062.6
91501
89232.9
87447.9
86231.2
85617.1
99042.6
99250.4
99624.1
100068
100428
100526
99993.8
98660.5
96575.9
94043.7
91477.4
89210.9
87429.4
86215.5
85602.8
99041.1
99248.3
99621.1
100064
100424
100524
99992.3
98657.8
96570.1
94033.9
91465.7
89199.8
87419.9
86207.3
85595.2
98560.2
98879.3
99487.4
100303
101140
101841
101740
100275
97538.7
94131.1
90839.4
88124.2
86103.9
84775.4
84118.4
98562.8
98882.9
99492.7
100310
101149
101847
101742
100281
97549.8
94148.8
90858.2
88139.6
86115.4
84784.4
84126.2
98568
98889.9
99503.6
100326
101168
101859
101745
100291
97570
94187.4
90899.4
88170.9
86137.5
84801.1
84140.6
98575.4
98900.2
99519.7
100349
101194
101867
101726
100291
97563
94229.1
90961.5
88217.2
86167.6
84822.7
84158.6
98584.5
98913.2
99540
100376
101220
101845
101658
100213
97517.6
94287.6
91031.6
88270.2
86201.6
84845.3
84176.7
98594
98927.2
99562.5
100404
101254
101837
101637
100214
97540.1
94338.8
91115.3
88325.7
86232.4
84864.6
84191.1
98602.1
98938.1
99577.7
100430
101258
101855
101631
100210
97549.3
94372.6
91254.3
88376.4
86256.8
84875.8
84198.2
98607.3
98944.8
99585.6
100441
101274
101873
101663
100167
97534.9
94368.4
91254.6
88380.2
86258.4
84875.9
84196.3
98608.5
98943.8
99581.9
100432
101258
101854
101627
100201
97537.6
94357
91235.6
88358.8
86240.7
84860.8
84183.5
98607.2
98939.8
99573.7
100412
101260
101835
101629
100199
97516.3
94311.6
91084.4
88294.7
86202.8
84836.3
84163.5
98603.5
98931.1
99555.7
100388
101229
101845
101649
100194
97487.7
94252.2
90992.2
88230.1
86162.3
84807.4
84139.6
98599.9
98923.6
99540.8
100366
101207
101868
101719
100273
97534.2
94192.6
90919.7
88173.1
86123.3
84778.9
84115.3
98596.8
98917.5
99528.7
100347
101185
101865
101741
100277
97543.8
94152.6
90858.5
88126.3
86091.3
84754.5
84093.9
98594.7
98913.4
99520.7
100334
101169
101854
101742
100270
97528.5
94117.6
90819.5
88095.9
86069
84736.7
84078.1
98593.7
98911.5
99517
100329
101162
101850
101741
100266
97518.9
94101.4
90801.8
88081.2
86057.7
84727.4
84069.8
97701.1
98182.2
99142.2
100556
102282
104027
105145
103420
99226.7
93972.4
89440.6
86090.7
83778.3
82327.4
81630.5
97702.5
98185
99147.9
100565
102296
104040
105143
103429
99241.3
94001.6
89469.2
86111
83792.3
82338.2
81639.8
97705.6
98191.3
99161.2
100589
102329
104070
105152
103463
99302.6
94086.2
89537.2
86153.4
83819.4
82358.2
81656.9
97710.4
98201.1
99183.1
100631
102381
104130
105003
103494
99256.3
94241.5
89663.9
86219.3
83856.6
82383.6
81677.7
97717.1
98214.6
99211.8
100675
102443
104093
104186
103137
99979.4
94423.1
89810.5
86304.2
83897.3
82408.4
81697.3
97725.4
98231.5
99253.2
100762
102533
103293
104084
103125
100045
95643.3
90006.5
86395
83937.8
82427.9
81711.5
97732.6
98245.7
99280.1
100808
101882
103337
104062
103099
100033
95690.1
91250.6
86451.6
83957.4
82435.9
81716.3
97737.9
98255.5
99296.6
100826
101887
103366
104093
103003
100028
95702.9
91234.6
86455.3
83970.7
82440.3
81712.4
97740.8
98252.6
99284.5
100811
101880
103351
104063
103072
100020
95681.5
91222.5
86426.8
83935.9
82416.4
81696.8
97743.1
98248.9
99269.3
100776
102541
103304
104059
103086
99996.5
95640.6
89954.2
86347.7
83895.4
82389.9
81675.7
97741.8
98237.8
99232.4
100691
102454
104096
104170
103112
99980.5
94368.1
89749.5
86245.6
83843.6
82359.2
81650.4
97742.7
98232.3
99211.8
100656
102398
104138
104998
103471
99213.7
94187.4
89604.2
86159.2
83798.9
82328.7
81624.5
97743.4
98227.6
99194.6
100618
102350
104084
105152
103446
99268.8
94040.4
89483.5
86096.6
83762.4
82302
81601.3
97744.3
98225.4
99185.5
100598
102322
104058
105149
103420
99218.2
93964.7
89422.3
86058.4
83737.2
82282.4
81584
97744.9
98224.6
99181.6
100590
102310
104047
105152
103413
99206.5
93938.8
89396.6
86040.2
83724.4
82272.2
81574.9
96234.2
96892.9
98258.4
100422
103439
107213
111301
108855
101776
92850.3
86600
82726.8
80277.3
78825.3
78155.8
96232.3
96892.6
98262.1
100432
103459
107238
111302
108869
101816
92905.1
86639.8
82749.6
80292.6
78837.6
78166.8
96229.3
96893.6
98272.1
100460
103516
107307
111336
108908
101924
93025
86727
82794.7
80321.2
78860.1
78186.3
96226
96897
98294.5
100542
103702
107523
109007
109011
103492
93582.3
86981.2
82882.8
80361.3
78888.3
78209.4
96222.5
96900.6
98325.7
100614
103812
105998
108987
108961
103624
95834.4
87221.1
82968.7
80397.1
78907.6
78228.1
96223.1
96918.4
98394
100845
102955
106197
109027
108859
103618
96095.4
89414.2
83110.8
80417
78928.8
78239.6
96221.5
96917.3
98397.1
100242
103014
106308
108076
108149
103914
97085.3
89645.6
84932.4
80371.3
78907.1
78233.1
96229.2
96932.9
98473.9
100245
103060
106346
108105
108129
103943
97137.2
89726.1
84994
80483.2
78901.7
78232.7
96232.1
96926
98402.4
100235
103051
106336
108080
108127
103898
97107.5
89676.1
84956
80338.8
78878.4
78204.5
96247.6
96943.9
98417.9
100865
102964
106228
108115
108124
103857
96103.7
89444.8
83033.3
80351.7
78876.8
78192.4
96255.5
96930.4
98353.9
100639
103829
106060
108964
108812
103492
95896.2
87117.9
82876.9
80320.8
78842.8
78168
96269.8
96940.8
98334.9
100577
103731
107540
108976
108975
103553
93493.7
86890
82797.3
80283.5
78818.1
78143.6
96280.2
96942.6
98318
100501
103548
107330
111346
108927
101886
92963.3
86654.6
82720.9
80250.3
78792.2
78120.1
96288.5
96947.4
98314.2
100480
103499
107268
111320
108879
101792
92862.1
86582.4
82685.7
80227.3
78772.4
78102.1
96293.1
96950.2
98312.7
100471
103481
107246
111321
108863
101757
92813.1
86548.1
82667
80214.8
78761.9
78092.4
93902.9
94692
96388.5
99272.1
103821
110936
116768
122532
109350
88500.6
81124.5
77486.2
75338.1
74184
73688.5
93894.8
94685.2
96385.2
99278.2
103845
110964
116780
122541
109368
88550.4
81160.1
77503.8
75353.3
74198.2
73701.8
93879.1
94671.5
96376.8
99277.3
103873
111027
116802
122558
109389
88596
81193.9
77517.5
75372.5
74221.8
73724.7
93858.8
94659.4
96385.4
99349.2
104277
108863
116932
122690
109412
93047.6
81404.6
77506.3
75410.5
74253.7
73751.2
93830.3
94627.7
96361
99422.4
103045
109152
117252
120252
110759
93887.8
84716.7
77510.1
75363.4
74254.9
73767.1
93812.4
94606.2
96424.1
99027
103179
108237
115463
119205
110844
96217.8
84976.7
79945.8
75325.2
74232.8
73769.3
93791
94572.7
96421.3
99076.7
103340
108274
114546
119177
111317
97213.2
86707.3
80035.6
75254
74185.7
73750.9
93787.7
94555.5
96454.2
99147.4
102698
107783
114573
119153
111286
97231.9
86701.5
80048.3
77166.4
74124.8
73735
93806.2
94588.4
96439.2
99127.1
102695
108264
114569
119138
111250
97185.2
86648.1
79963.5
75195.6
74145
73715.6
93845.5
94638.8
96454.4
99033.8
103319
108287
114521
119144
111227
97086.5
86597.5
79909.1
75227.8
74161.8
73708.4
93876
94671.9
96402.8
99463.8
103082
109252
115352
120130
110700
95896.5
84736.8
77363.2
75253.6
74168.3
73691.1
93917.8
94717.6
96441.1
99398.7
104322
108934
116977
122685
109355
93131.2
81263.9
77381.5
75302.4
74165.2
73671.1
93948
94738.8
96440.9
99337.9
103925
111068
116837
122554
109361
88512.5
81097.6
77422.6
75288.9
74141.7
73647.7
93971
94760
96457.4
99345.9
103907
111014
116810
122555
109372
88503.9
81090.6
77429.2
75277.7
74124.1
73629
93982.6
94770.2
96463.5
99342.3
103885
110989
116810
122554
109352
88462.2
81064.1
77416.8
75268
74113.6
73618.5
90476.9
91251.2
92964.4
96039.1
101198
108211
124919
155240
113882
81170.7
71020.2
69602.8
68762.5
68449.6
68346.1
90459.9
91234
92947.3
96022.6
101192
108212
124905
155230
113843
81168.7
71024.4
69603.4
68778.9
68468.2
68363.9
90423.8
91191.4
92895.4
95947.4
101082
108204
124837
155199
113847
81219.2
70999.7
69606.5
68803.3
68496.9
68394.6
90374
91137.5
92835.7
95738.6
100479
108591
124859
155084
113701
81430
74492.9
69419
68821.1
68527
68429.9
90300.2
91037.2
92638.4
95815.8
100502
107709
121945
154966
114740
85446
74417.1
71756.2
68688.5
68526.1
68450.2
90229.3
90887.9
93137.8
95877.5
100254
107687
120536
149964
119517
87612.4
76808.1
71763.6
70506.6
68463.2
68451.9
90191.6
90843.7
93138.1
95878.9
100277
107264
120447
149883
119600
87790.1
78156.3
73391.9
70510.3
68464.1
68450.3
90169
90820.3
93202.7
95907.6
100283
107244
120415
149856
119617
87819.5
78165.4
73381.7
70506.9
68464.9
68413.5
90211.7
90863
93168.4
95938.8
100313
107253
120421
149848
119496
87672.1
78052.9
73309.8
70412.7
68411.5
68406.4
90274.9
90933.7
93188.2
95884.6
100315
107285
120469
149872
119325
87428.3
77860.9
73182.1
70382.6
68373
68376.7
90362
91098
92700.3
95867.2
100550
107763
120580
149963
119232
87213.5
76543.3
71532.5
68538
68416.6
68358.2
90453.7
91215.4
92909
95806.5
100428
108564
122015
154999
113756
85374.5
74246.9
69243.8
68689.9
68422.7
68337.1
90517.4
91284.6
92986.6
96037.1
101163
108279
124903
155149
113769
81186.1
70878.9
69487.6
68700.6
68405.5
68309.3
90562.9
91335.6
93045.5
96115.8
101281
108304
124949
155249
113885
81181.9
70946.2
69519.7
68695.1
68388.1
68286.4
90584.7
91357.8
93068.3
96138.3
101292
108289
124983
155278
113896
81138.1
70952.3
69528.9
68687.5
68375.7
68273.3
85881.8
86389.3
87499.4
89472.9
92611.9
99491.7
107036
104493
23298.6
51601.8
56450.6
59220.5
60949.6
62036.5
62528
85856.3
86361.4
87467.9
89433.5
92582.5
99458
107010
104409
22953.7
51566.2
56418.6
59238.4
60984.7
62066.5
62555.3
85800.8
86293.7
87390.2
89359.2
92458.2
99361.2
106923
104327
22738.4
51678.4
56500.1
59343.1
61061.2
62124
62607.3
85719.9
86183.4
87256.3
89070.2
93742.4
98963.6
106674
104198
23050.6
52034.6
58152.2
59658.6
61198.6
62202.3
62678.1
85605.2
86031.1
87010.2
90215.2
93489.6
99365.4
107446
104027
23902.2
55756.8
60124.4
61280.2
61389.8
62304.8
62748
85477
85874.7
88191.4
90087.1
93947.7
99585.7
107251
103761
24643.4
56932.6
61654.2
61674.7
62789.8
62438.1
62803.2
85433.2
85817.7
88174.6
90003.1
94188.7
99516.8
107146
103638
25504.1
57747.5
62279.1
62905.5
62864.1
62529.2
62855.2
85420
85790.8
88146.2
90653.8
94188
99489.8
107108
103578
25663.5
57797.7
62397.5
63503.8
62914.5
62557.8
62844.2
85461
85844.6
88164.6
90656.3
94200.9
99503.6
107126
103628
24917.7
57367.8
62102.2
63346.7
62786.2
62464.9
62804.8
85536.5
85931
88227.8
90059.4
94222
99557.6
107199
103743
24231.4
56646.2
61565.6
62514.4
62622.9
62330.9
62717.1
85689.2
86115.8
87092.9
90206.8
94031
99651.4
107333
103908
23449.2
55849.9
60890.3
61078.2
61212.4
62179.9
62644.9
85828.3
86291.2
87360.9
89171.3
93728.9
98734.9
106481
104224
23205.9
53619.4
57873.4
59444.3
61051.4
62088.8
62579
85926.8
86418.9
87512.9
89474.1
92570
99249.4
106856
104336
22799.4
51589.6
56339.1
59218.6
60952.9
62029.6
62520.5
85994.8
86499.1
87603.6
89566.4
92711.3
99533.2
107054
104454
23033.8
51597.1
56354.8
59154.4
60901.9
61988.8
62480.5
86026.8
86533.5
87641.9
89612.9
92749.3
99600.5
107128
104529
23066.4
51555.4
56381.9
59148.4
60878.7
61967.3
62460
80370.1
80373.6
80357.9
80324.1
80575.8
84938.2
88870.4
102040
10607.6
30848.8
42819
49265.2
53464.2
55914.9
57011
80340.9
80341.6
80324.3
80288.5
80559.3
84902.4
88838.4
101843
3887.5
30913
42843
49343.3
53528
55960.6
57050.3
80281.2
80273.8
80254.1
80262.1
80512.7
84803.3
88743.4
101762
3529.12
31151
43078
49541.3
53665.7
56061.6
57131.7
80198.4
80163.4
80149.7
80296.3
83257.8
84714.8
88520.3
101632
2924.89
31664
43769.7
50116.9
53943.8
56230.6
57258.3
80092.2
80029.6
80061
82272.1
83267.4
86508.2
89544.7
101610
2410.15
32571.4
45209.2
51407.1
54363
56465.3
57412.3
79981.4
79976.8
81689.6
82174.6
84499.7
87274.1
89394.3
101227
9308.22
35979.1
46935.1
52048.2
55419.1
56737.4
57558.6
79949.5
79943.9
81632.8
82130.8
85130.4
87176.1
89303.2
101123
2204.99
40283.2
48364.9
52936.7
55615.6
56871.8
57650.3
79945
79929.1
81591.4
83168.5
85086.5
87138.4
89269.6
101038
2880.35
38998.9
48518.6
53304.3
55673.1
56901.5
57652.7
79988.2
79981.8
81612.8
83173.2
85103.1
87153.9
89285.3
101094
21490.3
37544.7
47863.9
53072.2
55542.2
56793.7
57595.4
80057.7
80049.3
81687.9
82215.1
85164.4
87225.3
89353.2
101178
4997.08
35707.8
46907.6
52354.5
55294.4
56611.5
57465.6
80205.5
80144
80171.9
82291.5
84616
87368.1
89477.2
101306
2777.02
33087
45681.6
51257.3
54159.5
56333.4
57306.5
80343.5
80309.4
80297.6
80432.6
83416.4
84943.9
88760
101734
2365.54
31598.4
43890.5
49902.2
53796.3
56119.3
57162.9
80449.3
80441.9
80422.7
80429.8
80669.9
84883.6
88730.3
101738
2578.12
31118.1
42932.6
49433.5
53569.1
55977.6
57054.6
80525.5
80526.5
80508.9
80470.2
80736.4
85008.2
88907.7
101885
4110.86
30890.4
42785.1
49274.2
53461.9
55897.9
56989.4
80563.1
80566.7
80550.8
80514.9
80763.5
85091.4
88999.6
101974
2457.5
30816.8
42765.1
49216.6
53413.4
55863
56959
74616.7
74059.8
72906.7
71092.5
71000.3
70520.4
73420.6
2190.04
22971.7
35306.1
42882.3
48144.6
51314.4
52788.3
74586.6
74027.7
72874.8
71066.2
70968.9
70490.6
73394.2
2209.34
23108.3
35371.5
42986.8
48213.6
51363.7
52830
74532.1
73972.6
72811.3
71022.6
70973.7
70463.4
73314.8
2219.69
23031.7
35649.1
43166
48350.7
51471.9
52915.8
74469.6
73903
72734.5
71098
71322.9
70348.6
73113.4
2241.31
23448.1
35281.3
43685.3
48622.2
51659.5
53053.4
74409.9
73836
72795.6
73123
71847.1
72345.8
73696.9
2266.63
22545.3
35780.4
44000.1
48993
51908.6
53226.2
74357.9
73907.5
74363.1
73336.5
73196.7
73272.5
73582.8
2277.15
25901.2
37134
44637.5
49413.7
52101.1
53394.2
74348.9
73917.6
74275.1
73392.1
73967.4
73275.1
73532.2
2567.25
32868.4
38967.5
45187.8
49667.1
52201.4
53473.9
74354.1
73925.7
74255.1
74322.3
74037.5
73274.9
73515.9
4006.81
33001.2
39364.7
45465.5
49687.8
52223.7
53471.6
74401.5
73970.4
74276.2
74353.5
74055.7
73285
73517.9
2288.87
29241.7
38612.7
45234.5
49574.5
52130.3
53420.9
74457.9
74003.2
74356.7
73475.3
74020.9
73315.8
73560.8
82862.5
29771.5
37666.9
44664.8
49372.9
51989.3
53306.6
74560.5
73989.1
72949.2
73216.4
73264.9
73352.7
73656
2498.9
24588.2
36216.2
44004.7
48833.7
51793.2
53131.7
74661.3
74096.2
72936.5
71290.2
71550.6
70599.3
72940.6
2330.71
22470.2
35440.7
43545.3
48510.7
51570.5
52975.9
74753.8
74195.9
73037.6
71250.2
71180.9
70580.2
73329.9
2373.83
23090.5
35590.8
43111.4
48288.7
51414.6
52861.6
74829.5
74272.7
73122.4
71311
71231.8
70684.6
73514.3
2378.54
23169.9
35388.1
42966.4
48184.3
51330.7
52795.6
74870.1
74315.4
73165.4
71350.5
71223.8
70737.5
73611.6
2404.84
23096.2
35321.2
42885.9
48132
51294.2
52765.1
69506
68421.9
66160.4
62241.3
60349.7
53834.9
50360.9
2205.44
2179.07
21013.7
32563.5
40342.9
45724.3
49027.9
50609.9
69468.3
68380.4
66112.9
62186.6
60301.6
53793.3
50345.7
2224.95
2205.29
21067.5
32581.4
40410.8
45762.7
49058.6
50635.5
69402.2
68312.6
66020
62057
60227.4
53701.9
50290.5
2275.2
2217.87
18131.9
32847
40511.3
45840.1
49121.2
50685.2
69329.7
68239.3
65872.4
61950.8
60126.1
53542.6
50243.3
2356.44
2256.45
18768.3
30979.1
40717.5
45979.2
49231.1
50764.9
69279.9
68172.2
65788.5
64704.7
59999.3
56184.7
51924.1
2268.84
2278.35
17567
30472.1
39822.9
46144.4
49379.4
50863.1
69248.9
68185
67640.8
64631.5
61782.9
57390.4
51915.7
2264.79
2280.3
18580.3
30882.7
40166.5
45701.1
49454
50962
69238
68172.9
67610
64538.8
62592.5
57388.8
51935.3
3166.71
2287.9
19973.7
31996.3
40099.8
45881.9
49484.2
50996.4
69246.8
68189
67598.2
65823.2
62614.4
57410.6
52005
2105.83
28054.1
22163.4
32675.2
40172.1
45915.6
49480.9
50977.5
69307.2
68241.5
67641.5
65868
62631.7
57403.8
51938.8
2317.77
2251.55
20842.5
32352.6
40037.5
45836.2
49427.2
50948.1
69380.7
68314.4
67742.2
64671
62680.5
57417.3
51927.4
2362.13
2336.98
20293.5
31574.5
39806.4
45677.8
49368
50889.9
69476.8
68370.6
65991.2
64840.3
61940.4
57487.8
51999.9
2943.92
2291.11
18905.9
30641.2
39821.4
46039.4
49295.3
50791.7
69579.3
68491.5
66138.5
62221.2
60267.3
53685
50319.8
2834.05
2295.05
18213.7
31149.8
40670.8
45920.1
49177.1
50716
69689.8
68605.6
66321.9
62366.8
60429.9
53844.9
50378.2
2333.05
2364.94
18704
32896.8
40523.9
45827.7
49102.6
50664.4
69782.4
68700.6
66443.9
62524.4
60603.4
54028.9
50529
2329.69
2382.03
21416.8
32731.6
40474.7
45788.8
49068.2
50638.8
69833
68754.9
66504.7
62595.7
60673.9
54144.4
50661.3
2336.49
2392.17
20968.6
32676.7
40413.3
45764.6
49052.5
50626.6
65848.2
64319.3
61094.5
55472.7
45664
37570.5
15411.4
2347.65
2189.42
22498.3
33406.2
40817.1
46008.8
49177.9
50702.5
65790.1
64253.4
61008.9
55353.8
45567
37443.5
15383.8
2282.66
2206.22
22328
33320.3
40811
45994.4
49173.7
50699.1
65686.1
64140.9
60860.7
55149.2
45451.2
37070.2
15452
2279.09
2222.9
18502.6
33190.4
40799.7
45979.1
49163.1
50690.4
65557.4
64013.2
60629.4
54906.8
49837.3
36684.6
15500.4
2252.63
2253.85
18114.5
30061.9
40731.8
45951.1
49151.8
50680.4
65452.2
63892.1
60441
57537.5
49658
40232.2
21503.9
2237.27
2276.14
15989.9
28724.7
38641.7
45891.6
49157.8
50667.1
65386.3
63782.4
62280.7
57399.6
51762.6
41924.8
22246.3
2214
2321.5
16354
28386.5
38665.1
44527.4
49117.4
50663.9
65342
63715.6
62258.9
57254.2
52690.8
41947.3
22359.8
2291.87
2280.27
17217.9
29167.6
37979.1
44552.6
49066.2
50636.2
65348.2
63726.5
62250.4
58721.6
52625.6
42030.9
22884.3
2294.6
2309.29
20355.9
30179.2
37813.9
44536.9
49026.9
50602
65432.7
63807.6
62306.9
58767.6
52634.3
41955.3
22522.1
2311.17
1597.7
21367.1
29986
37698.2
44481.5
49010.3
50592.7
65559.6
63962.2
62445.1
57437.4
52772.4
41918.1
22322.1
2296.5
2301.33
17371
28863.8
37745.3
44423.1
49037.4
50602.1
65707.8
64152.9
60724.8
57784.9
51966.6
42057.4
22346
2162.92
2325.2
16457.2
28249.3
38493.9
45801.1
49092
50615.2
65877.8
64343.6
60988.2
55300.2
50102.2
37001.2
17237.1
2336.31
2306.95
16994.1
30116.1
40722.8
45923.7
49127.8
50659.8
66052.5
64522.1
61267.2
55599.3
45917.6
37250.4
15495.5
2262.79
2369.66
18734.7
33341.1
40873.4
46016.1
49185.5
50706.7
66187.7
64665.2
61447.5
55835.3
46048.8
37719.2
15649.2
2281.54
2396.61
22666.2
33547.8
40947
46081.1
49232.7
50746.3
66261
64744.6
61545.2
55969.9
46148.9
38024.4
15699.1
2300.42
2398.49
22434.6
33655.3
40955.4
46112.8
49255.1
50766.2
64317
62645.3
59014.5
53324
42246.6
33677.8
3026.73
2321.57
2244.56
26686.4
37092.6
44019
48760.6
51570
52916.3
64229
62540.8
58886.3
53050.3
42188.8
33052.9
2917.8
2288.59
2388.89
26338.3
36938.3
43939.7
48689.7
51529.1
52884.1
64072.9
62358.8
58682.2
52541
42714.9
31403.1
5626.17
2285.85
2219.65
20368
36695.8
43828.5
48569.3
51449.1
52821.1
63871
62149.6
58387
52161.6
45027
30335.1
5668.87
2271.55
2244.67
20205.9
32437.2
43553.8
48387.9
51327.7
52731.3
63688.8
61956.2
58173
53763.3
44610.4
32707.2
14289.1
2256.47
2278.7
17034.1
30214.8
40426.9
48134.4
51196.8
52619.9
63562.8
61790.6
59258.4
53515.1
46034.6
33700.3
14254.7
2232.48
2284.01
16834.9
29077.2
40079.2
45948.4
51054.9
52521
63482.2
61688.4
59197.5
53341.7
46658.5
33641
14459.8
2308.72
2198.23
17280.6
29504.3
38693.2
45748
50916.4
52430.1
63489.3
61693.7
59197.4
54462
46545.2
33718.5
16996.7
2291.06
62794.2
26550.1
30658.2
38150.5
45616.2
50825.2
52368.4
63599.3
61812.3
59282
54517.2
46543.3
33476
14530.5
2287.78
2243.85
17180.1
29513.9
37908.2
45571.7
50841.9
52379.4
63786.9
62033.5
59459.2
53627.8
46745.9
33420.2
13832.1
2314.17
2313.88
16326.3
28529.5
38324.8
45660.7
50957.1
52454.9
64015.1
62300.8
58581.9
54067.5
46365.8
33874.4
14366.3
2274.27
2307.02
16636.3
28720.4
39996.4
48018.9
51128.7
52575.4
64272.6
62580
58880.2
52765.7
45406.8
31190.8
14023.5
2287.63
2310.93
18281.1
32256
43539.9
48372.5
51323.4
52732.1
64526.5
62845.6
59229.2
53189.8
43560.6
31048.6
4972.68
2284.38
2374.64
20737
36941.9
43957.5
48653.9
51510.4
52873.1
64717
63057.2
59449.6
53745.4
42817.4
33924.3
3206.13
2297.15
2831.49
26869.6
37291.8
44156.1
48842.6
51639.6
52976.5
64822.7
63172.2
59578.7
54042.4
42781.6
34733
2813.62
2292.65
2485.77
27112
37475.5
44253.8
48942.9
51705.1
53030.3
65305.1
63901.3
60858.3
56241.4
46546.3
36219.8
2214.66
2279.46
18964.6
38606.9
44566.3
50214.6
53837.8
55930.9
56952
65179.6
63749.8
60656.7
55849.1
46204.4
35458.2
2227.93
2275.01
19860.4
38082.8
44381.4
50049.1
53719
55864.1
56900.6
64960.3
63484.9
60327.3
55104.6
47116.6
33987.1
6777.49
2292.93
9747.46
29164.8
44087.3
49772.3
53500
55738.2
56803.1
64678.2
63147.4
59840.9
54384.4
46735
32640
8167.01
2281.29
2235.18
27020.9
38741.8
49294.5
53183.1
55544.8
56664.6
64411.1
62828.5
59412.9
54368.9
45562
32937.4
14273
2244.92
2253.05
21368.4
35331.9
45298.9
52799.7
55315.3
56492.5
64213.5
62587.1
59456.6
53764.5
45675.8
32771.3
13787.2
2285.2
2270.22
19752.2
32871.9
44390.4
49892.1
55113.5
56328.4
64098.2
62438.4
59282.5
53421.1
45678.3
32241.7
13544.8
2326.92
2294.57
17943.3
32091.6
42066.2
49405.5
54903.2
56187.9
64106.8
62439.6
59255.5
53994.4
45455.2
32042.7
13046.8
2068.12
2194.53
20771.6
32406.6
40892.9
49121.6
54751.5
56093.7
64244.9
62600.3
59388.6
54090.3
45499
31822
12918.2
2297.99
2344.28
3684.96
30792.5
40588
49087.9
54796.7
56122
64494.5
62903
59664.4
53940
45903.1
31910.5
9891.54
2298.79
3823.76
14423.4
30505
41618.6
49363.5
54986.4
56249.7
64813.4
63272.2
59967.7
54657.1
46374.1
33186.2
13739.3
2315.95
3800.86
19026
32187
44463.4
52637.8
55235.4
56448.2
65165.2
63687.4
60502.2
55278.9
47158.5
33540.3
14193.6
2289.34
2347.64
23289.1
38120.4
49300.5
53184.6
55557.8
56682.6
65502.4
64080.1
61041.9
56029.4
48477.6
34922.1
9093.02
2264.89
5343.67
28389.4
44493.4
49992.9
53642.2
55838.8
56888.1
65750.9
64368.4
61370.7
56758.6
47165.4
37178.7
2387.84
2322.52
19778
38774.4
44857.5
50375.8
53947.1
56026.3
57036
65887
64529.1
61566.9
57150.4
47457.7
37870.9
2401.27
2319.87
19977.8
39482
45131.7
50593.9
54108.8
56124.9
57114.5
68515.3
67725.3
65946.7
64086
58895.9
55739.3
54914
5303.97
51296.4
54829.3
56391.6
59327.4
60836.1
61836.4
62375.8
68356.7
67516.4
65663.1
63464.2
58005.1
54326.3
48410.3
7113.84
49482.3
54060.4
56037.4
59045.1
60691.9
61760.7
62320.4
68080.2
67160.7
65228.6
62160.4
58163.4
46694.1
29187.1
2321.77
25349
44492.4
55691.1
58532.6
60430.9
61626
62218.2
67721.8
66689.9
64477.6
60961.9
54350.5
43713.9
23493.9
2373.7
13131.1
41778.5
49678
57950.9
60063
61424.8
62076.3
67375.7
66227.1
63790.8
59291.9
52204.5
40820.2
20828.1
2280.28
10945.4
32449.6
45177.8
53343.1
59662.8
61170.1
61901.9
67114.6
65920.9
62841.9
58078.9
50588
38081.7
17012.8
2309.1
10517.1
27228.1
40788.4
51971.6
56229.6
60974.4
61729.4
66969.5
65728.2
62422.4
57510.2
49748.1
36575
15639.9
2269.94
2293.94
22384.3
37386.4
48450.1
55524.1
60732.1
61576.1
66978.2
65729.1
62369.8
57432.3
49442.6
36417.8
16406.7
2291.39
2377.53
14257.3
34942.6
46299.1
55082.8
60572.4
61460.2
67140.2
65928.8
62552.9
57621.9
49668.4
36580.5
16260.4
2280.9
2227.7
2709.5
36195.5
46041
55053.5
60614.2
61495.3
67438.8
66302.6
62954.4
58383.1
50452.1
37117.2
11785.2
2298.9
2304.9
14047.9
35864.7
47970.3
55501.5
60825.1
61638.7
67829.4
66754.6
64505.3
59431.1
52093.1
39771.8
17681.5
2313.13
6404.56
25459.6
39768.1
52143.2
59480
61083.8
61856.7
68260.1
67313.4
65302.1
62206.4
54858.2
45135
24299.7
2302.01
11964.3
35807.4
48878.5
58027.3
60102.4
61459.1
62109
68668.7
67829.3
66086.7
63419.9
60286.8
48231.4
31350.7
2438.5
28118
44904.1
56345.6
58883.4
60639
61764.1
62330
68967.8
68199.6
66489.3
64659.4
59668.4
57677
59186.3
14538.9
53842.6
55787.4
56866.3
59537.1
60995.6
61968.2
62489.8
69133.6
68412.1
66754.3
65244.2
60495.5
58652.3
63777.7
13356.2
55707.6
56538.9
57313.9
59886.1
61188.6
62080
62575.9
73126.9
73122.3
72885.8
74447
77094.4
82637.2
123185
150166
98844.2
75936.3
71345.1
69684.7
68719.9
68536.1
68523.1
72955.4
72871.2
72549.2
73718.9
75680.7
81147.5
119757
133892
95594.9
74873.6
70674.9
69356.8
68592.4
68473.7
68484.1
72656
72436.8
72075.2
71923.3
73427.8
71632.5
91530.6
116865
89977.4
70072.1
69386.9
68711.8
68388.5
68373.4
68417.2
72260.7
71891.6
71143.9
70376.7
67028.4
66575.8
77979.6
104160
74524.4
66625.3
65108.4
68166.9
68126.2
68247.9
68329.9
71880.7
71358.7
70324.1
67108.8
64002.5
57959.8
48893.9
52597.9
42505.5
54947.4
60792.2
64440.4
67818.6
68062.1
68222.2
71602.7
71018
68385.8
65661.3
60424.8
51056
26432.9
2274.53
2294.59
44390.2
55754.7
63286.5
64803.3
67906.4
68110.1
71451.8
70821.8
67879.2
65024.1
58710.3
47973.2
20355.3
2288.82
2290.11
19497.9
48750.4
59045.7
64119.4
67726.9
67995.4
71461.5
70830.8
67806.4
64188.8
58382.9
48270.8
28567.2
2630.29
14844.1
3072.79
42074.9
55875.8
63668.7
67604.1
67913.6
71625.5
71031.1
68025.7
64464.2
58862
49401.9
31193.1
2273.96
2249.67
2252.88
39664.7
55347.3
63582
67613.9
67924.1
71928
71408.6
68506.5
66131.8
60047.3
51311.7
33075.6
2348.19
2317.9
13254.3
45145.2
58265.6
63987.6
67764.5
68021.5
72329.3
71893.3
71068.4
67275.8
62729.8
55600.9
41060.9
2311.96
8751.02
43512.9
54033.6
63256.7
67659.1
67987.3
68180.5
72786.2
72512.6
71994.6
71636.1
67475.6
67230.6
63936.2
65284.1
54129.6
60212
64613.8
68357.2
68219.2
68302.8
68372.3
73219.1
73083.7
72905.9
73128.3
75230.5
73616.5
88778
112801
86413.1
70914.7
70135.6
69137
68638.6
68532.4
68541.1
73532.3
73525.2
73330.1
74802.6
77226.3
82040.5
118384
137228
97585.5
76233.1
71635.1
69911.5
68926.9
68701.2
68665.5
73706.3
73772.6
73638.1
75455.2
78561.5
83571
123382
154817
100716
77234.7
72343
70269.7
69088.9
68795.8
68733.8
78007.9
78602
79447.8
82137.4
88490.4
91426.6
108403
122901
98191
88618.2
82750.3
78325.7
76015.2
75001.1
74551.3
77868.1
78383.4
79169
81762.8
87479.7
90265.2
107857
118120
97854
87534.6
82319.3
78178.3
75966.7
74985.8
74553.7
77624.1
77976.2
78808.8
80526.5
84848.1
87447.8
97962.1
110616
97237.4
87278.8
81086.5
77798
75903.3
74967.3
74566.6
77282.4
77502.3
77999.1
79363.7
79868.2
85089.6
96811.2
114795
98807.9
86132.5
79775.9
77572.3
75869.7
74987.9
74592.4
76949.4
77031.2
77261.4
76115.4
77072.3
78295.9
85280.3
120667
98391.1
85414.5
78944.4
76133.4
75828.2
74956.2
74611.6
76719.4
76676.1
75119
74845.8
73372.6
71739.4
69737
70659.6
80329.8
105750
79213
75904.2
74277.3
74924.4
74617.7
76595.8
76504.5
74718.8
74220.4
71139
68403.2
59228.1
2282.66
2255.13
79776.7
74759.2
73762.8
74027.3
74876
74609.1
76607.2
76517.7
74671.4
72931.8
70861.3
68233.1
62867
45802.3
26393.9
27569.5
67274.4
71336.4
73727.3
74826.5
74577.6
76739.9
76677.2
74852.2
73191.2
71357.5
69408.5
65380.6
55856.7
16976.1
39869.9
66473.9
70775.8
73613.2
74792.2
74550.4
76985.7
76991.1
75243
75110.2
72473.5
71734.4
67165.4
34213.7
63538.3
67604.5
70876.3
72880.1
73788.3
74830.2
74547.2
77314.6
77446.4
77798.4
76174.1
75364.9
75759.2
81533.7
107970
98412.1
84592.4
76795.8
75737.7
75799.5
74928.3
74579.7
77708.2
77978.9
78600
80118
79816.2
84443.9
92343
112255
96765.2
87655.7
80693.7
77966
76020.6
75054.6
74633.2
78071.2
78459.9
79349.4
81077.3
85412.2
86337.7
95254
104960
94220.6
86804.4
81669.5