/*--------------------------------*- C++ -*----------------------------------*\
| =========                 |                                                 |
| \\      /  F ield         | OpenFOAM: The Open Source CFD Toolbox           |
|  \\    /   O peration     | Version:  v2012                                 |
|   \\  /    A nd           | Website:  www.openfoam.com                      |
|    \\/     M anipulation  |                                                 |
\*---------------------------------------------------------------------------*/
FoamFile
{
    version     2.0;
    format      ascii;
    class       volScalarField;
    location    "0.024";
    object      p;
}
// * * * * * * * * * * * * * * * * * * * * * * * * * * * * * * * * * * * * * //

dimensions      [1 -1 -2 0 0 0 0];


internalField   nonuniform List<scalar> 
449343
(
107610
107768
108039
108326
108496
108361
107685
106401
104557
102360
100098
98044.6
96389.4
95242
94657.4
107600
107760
108033
108323
108496
108365
107693
106415
104577
102385
100126
98072.5
96415.6
95266.4
94680.6
107600
107761
108039
108335
108513
108390
107727
106459
104633
102452
100199
98145
96484.7
95331.6
94743.4
107607
107772
108055
108359
108545
108432
107783
106529
104721
102554
100310
98255.8
96589.9
95430.6
94838.8
107619
107788
108078
108392
108587
108488
107854
106619
104832
102682
100448
98393.6
96720.1
95552.8
94956.2
107633
107806
108104
108427
108633
108549
107933
106720
104954
102822
100598
98542
96859.8
95683.5
95081.6
107645
107821
108126
108460
108676
108607
108008
106814
105070
102955
100735
98680.1
96990.2
95805.9
95199.5
107652
107831
108141
108482
108707
108653
108069
106893
105161
103059
100843
98786.9
97092.7
95903.9
95294.8
107651
107832
108144
108491
108722
108678
108106
106940
105217
103118
100904
98847.9
97154.5
95965.9
95356.7
107643
107823
108136
108483
108718
108679
108112
106950
105227
103126
100912
98858.9
97171.3
95988
95381.4
107628
107806
108117
108463
108696
108657
108088
106922
105194
103085
100873
98824.5
97147.3
95973.9
95371.6
107608
107784
108091
108431
108660
108619
108043
106869
105131
103016
100802
98759.8
97093.1
95927.9
95333.2
107584
107759
108061
108397
108622
108574
107990
106805
105057
102935
100720
98684.8
97029.5
95874.9
95284.6
107561
107733
108033
108365
108585
108531
107939
106745
104988
102860
100646
98616.6
96970.2
95823.6
95237.6
107539
107711
108008
108338
108555
108497
107900
106702
104939
102809
100595
98569.2
96927.5
95785
95201.3
107425
107631
108002
108442
108797
108886
108343
106996
104900
102364
99805.6
97555.8
95793
94593.9
93989.2
107415
107622
107996
108439
108798
108891
108352
107013
104924
102395
99839
97588.1
95822.5
94620.9
94014.7
107414
107624
108002
108453
108818
108919
108387
107060
104987
102473
99924.4
97670.7
95898.7
94691.4
94082.2
107420
107634
108020
108480
108853
108963
108443
107131
105084
102594
100057
97798.5
96015.6
94799
94184.7
107431
107650
108045
108518
108903
109019
108521
107236
105206
102749
100227
97960.8
96162.1
94932.6
94311.5
107445
107669
108073
108560
108958
109088
108607
107353
105358
102922
100414
98139
96321.5
95076.7
94447.8
107456
107685
108098
108597
109007
109156
108696
107464
105504
103089
100594
98307.5
96470.9
95212.5
94576.3
107463
107694
108113
108622
109043
109206
108765
107514
105612
103211
100724
98432.8
96586.4
95320.5
94679.8
107462
107694
108116
108629
109057
109232
108809
107619
105688
103280
100788
98499
96654
95387.1
94746
107453
107684
108103
108616
109050
109225
108809
107627
105692
103279
100780
98500.7
96666.6
95406.9
94769.7
107437
107665
108080
108588
109020
109194
108779
107585
105635
103222
100716
98444.3
96630.9
95384.7
94754.3
107416
107641
108050
108552
108977
109152
108722
107512
105553
103121
100610
98354.2
96559.2
95331.1
94710.6
107393
107615
108019
108512
108931
109101
108661
107435
105455
103008
100496
98255.8
96481.5
95267.3
94651.9
107370
107590
107989
108476
108888
109051
108601
107360
105365
102908
100399
98170.1
96410.7
95207.8
94599.3
107348
107567
107964
108448
108855
109014
108558
107309
105306
102845
100336
98113.9
96361.8
95164.7
94559.3
106960
107275
107875
108678
109502
110164
110028
108520
105745
102320
99033.3
96339.4
94343.9
93035.5
92389.4
106949
107265
107869
108677
109506
110174
110040
108542
105779
102364
99079.4
96381.6
94380.9
93068.4
92420.2
106945
107266
107876
108695
109533
110212
110077
108604
105859
102474
99196.4
96487.1
94473.1
93151.4
92498.6
106949
107274
107896
108730
109580
110264
110125
108690
105966
102643
99385.9
96655.5
94616.6
93278.6
92617.8
106958
107290
107926
108782
109650
110316
110172
108775
106109
102886
99637.5
96875
94801.1
93438.8
92766.5
106969
107309
107961
108836
109730
110389
110265
108929
106336
103153
99935.6
97125.6
95005.6
93614.3
92928
106978
107325
107989
108890
109798
110473
110386
109092
106563
103384
100262
97370.1
95202.9
93781.3
93081.1
106983
107334
108005
108919
109847
110550
110513
109089
106734
103555
100439
97538
95350
93913.3
93204.4
106981
107331
108004
108920
109856
110562
110539
109318
106844
103647
100520
97621.1
95431.7
93991.4
93280.9
106971
107318
107985
108889
109839
110536
110529
109313
106834
103636
100452
97602.2
95433.1
94008.1
93304.1
106955
107297
107952
108845
109785
110495
110484
109235
106716
103534
100287
97489.8
95368.5
93969.8
93277.8
106934
107271
107915
108793
109723
110445
110454
109175
106594
103334
100093
97339.5
95263
93893.5
93216
106913
107244
107878
108742
109655
110374
110374
109042
106434
103135
99894.1
97182.7
95149
93806.7
93141.6
106891
107219
107846
108699
109599
110308
110295
108929
106292
102971
99738.2
97056.1
95051
93728.4
93073.2
106870
107196
107820
108668
109560
110263
110241
108859
106207
102877
99648.3
96979.5
94988
93675.1
93024.7
106086
106559
107504
108895
110592
112296
113342
111520
107251
101954
97434.2
94130.3
91864.9
90450.1
89772.6
106072
106547
107496
108895
110600
112310
113352
111549
107294
102014
97496.4
94184.2
91911
90491
89810.8
106063
106543
107503
108919
110645
112365
113389
111641
107418
102191
97660.8
94318.7
92023.9
90591.1
89904.5
106059
106547
107524
108969
110720
112453
113322
111780
107514
102501
97953.4
94542.1
92203.1
90745.7
90047.5
106061
106559
107559
109038
110833
112510
112633
111638
108457
102984
98369.3
94857.7
92441
90943.8
90227.9
106066
106575
107605
109142
110965
111780
112650
111794
108804
104461
98912.9
95234.7
92716.8
91163.8
90426.1
106070
106590
107643
109216
110358
111902
112778
112001
109102
104849
100444
95598.2
92987.2
91378.7
90616.5
106071
106597
107659
109246
110390
112004
112946
112118
109362
105161
100729
95840
93192.6
91551.2
90769.7
106068
106591
107650
109238
110403
112030
112993
112320
109540
105342
100926
95963.1
93299.4
91650.1
90866
106059
106574
107619
109180
111054
111969
112982
112352
109555
105353
99767.8
95922.8
93292.4
91666.3
90891.5
106045
106551
107566
109076
110947
112736
112989
112268
109402
103987
99348.6
95710.2
93179.9
91605.7
90850.9
106030
106526
107522
109003
110826
112665
113721
112439
108470
103529
98954.3
95451.7
93019.5
91495.6
90763.3
106012
106502
107480
108932
110727
112532
113710
112183
108175
103079
98580.2
95199.3
92850
91372.8
90661.7
105994
106479
107447
108881
110652
112435
113601
111996
107927
102780
98321.2
95008.4
92711.1
91265.7
90570.1
105975
106458
107421
108847
110607
112378
113536
111895
107796
102632
98184.6
94900.1
92626.9
91197.1
90509.2
104608
105253
106594
108724
111700
115419
119405
116817
109531
100487
94294.4
90517.7
88152.6
86763.9
86127.7
104587
105235
106581
108720
111709
115437
119408
116834
109583
100562
94365.8
90577.4
88205.3
86812
86173.2
104568
105221
106579
108743
111775
115529
119475
116924
109795
100802
94569.7
90730.2
88334.8
86928.6
86282.5
104549
105210
106590
108816
111962
115773
117229
117152
111541
101519
95024.9
91011.3
88544.9
87110.3
86450.6
104533
105205
106620
108907
112129
114328
117336
117321
112012
104188
95656.9
91409.5
88838.7
87347.8
86665.5
104522
105211
106678
109134
111316
114607
117539
117507
112424
105000
98279.2
91977.2
89177.5
87621.7
86905.4
104511
105205
106688
108570
111401
114811
116752
117110
113155
106481
99080.4
94150.9
89503.1
87877.2
87137.2
104507
105207
106746
108567
111472
114924
116942
117428
113679
107088
99683.8
94601.9
89872.2
88092.8
87333.8
104502
105197
106682
108558
111471
114954
117022
117663
113994
107459
99971.8
94834
89945.8
88232.1
87451.9
104504
105197
106672
109143
111376
114842
117034
117691
114023
106613
99716.1
92967.2
89973.3
88270.9
87487.5
104501
105176
106598
108905
112209
114602
117835
118271
113542
106156
97225.7
92644.4
89820.2
88183.4
87432.1
104500
105166
106557
108805
112002
115940
117603
118019
113045
103168
96503.2
92245.4
89591
88035.6
87314.9
104495
105153
106520
108705
111787
115674
119697
117617
110784
102053
95809.2
91856.1
89353.3
87867.1
87178.7
104486
105139
106495
108654
111691
115533
119541
117329
110350
101556
95410.9
91589.7
89165.1
87724.6
87058.8
104472
105123
106474
108623
111646
115465
119470
117175
110150
101311
95209.7
91442.6
89054.7
87637.2
86982.6
102280
103049
104708
107543
112043
119113
124876
130312
116646
95564.3
88405.2
84945.7
82949.4
81902.7
81461.4
102249
103020
104682
107525
112043
119120
124870
130311
116645
95593.4
88454.5
84994.2
83001.8
81955.2
81512.6
102210
102984
104653
107508
112067
119191
124898
130362
116718
95719.8
88584.5
85112.1
83133.4
82082.5
81634.6
102164
102944
104631
107554
112431
117044
125040
130599
117013
100590
89062.2
85319.6
83349.4
82285.1
81824.2
102113
102892
104592
107608
111233
117356
125460
128430
118797
101896
92844.8
85722
83625.7
82542.7
82069.4
102072
102846
104630
107238
111380
116513
123817
127723
119537
105055
93837.3
88691.9
84007.8
82840.3
82346.9
102031
102790
104605
107274
111536
116579
123052
128131
120886
107077
96394.6
89416.4
84368.1
83124.9
82615.8
102009
102754
104663
107337
110916
116148
123231
128620
121924
108255
97304.9
90057.8
86711.2
83354.8
82845.2
102015
102772
104584
107292
110905
116634
123328
129026
122796
109164
97931.2
90398.7
85029
83582.2
83008
102041
102812
104591
107182
111464
116609
123268
129099
122985
109454
98036.6
90449.6
85105.9
83663.3
83062.1
102063
102839
104527
107543
111179
117514
123965
129770
121981
107787
95698.2
87517.8
84928.2
83587.4
82994.5
102093
102872
104559
107464
112319
117096
125398
131635
119344
103623
91210.5
86968.9
84671.3
83404.5
82846.6
102113
102884
104548
107396
111937
119082
125046
131036
118385
97598.5
90236.5
86533.1
84366.2
83185.1
82671.8
102122
102891
104550
107388
111893
118977
124884
130707
117642
96903.4
89753.2
86212
84127.2
83005.3
82521.5
102117
102885
104541
107370
111860
118937
124829
130539
117283
96530.5
89480.9
86022
83988
82897
82428.4
98885.4
99628.8
101285
104291
109389
116414
133170
163353
120215
87610
77774.1
76673.4
76083.2
75935.7
75913.8
98841.4
99583.5
101238
104243
109347
116389
133128
163307
120036
87465.5
77742
76686.5
76128.5
75989.3
75968.8
98773.7
99509.7
101155
104126
109202
116340
133022
163244
119938
87456.5
77701
76750.6
76251.3
76119.5
76100
98685.1
99412.8
101042
103884
108598
116682
133015
163145
119990
87872.8
81471.1
76736.3
76452.6
76329.5
76306.5
98573.7
99271.1
100810
103954
108576
115776
130064
163100
121614
92624.7
81897.6
79530.2
76658.5
76602
76576.3
98467.5
99086.5
101305
103962
108299
115705
128631
158255
127719
96149.8
85312.3
80187.5
78932.3
76915.8
76889.7
98393.8
98998.2
101265
103914
108278
115242
128479
158391
130052
98576.2
88056.2
82713.5
79419.3
77298
77210.3
98347.1
98947.5
101302
103903
108229
115144
128330
158532
133328
101375
89690.1
83686.9
80062.7
77617.2
77452.2
98372
98969.9
101242
103898
108211
115069
128186
158642
136845
103638
90893.3
84355.2
80399.6
77831.1
77672.4
98424.8
99034.1
101247
103818
108181
115037
128106
158538
137662
104036
91105.1
84485.9
80524.5
77882.7
77722.7
98507.1
99195.6
100700
103815
108339
115436
128139
158144
134598
102156
89018.3
82310.9
78270.2
77838
77642.1
98595.7
99314.1
100923
103704
108252
116198
129546
162691
125948
97377.8
84982.3
78814.1
78034
77617.9
77462.7
98655.4
99382.3
101004
103942
108930
115985
132434
162805
123036
90745.1
79790.3
78454.9
77674.6
77359.7
77250.6
98692.6
99427.4
101065
104032
109070
116056
132612
162954
121337
89227.8
79274.5
78080.2
77388.1
77145.9
77070.3
98701
99436.9
101075
104048
109089
116075
132715
163019
120642
88511.1
78938.7
77856
77221
77016.9
76960.3
94369
94829.4
95849.3
97708.7
100741
107669
115367
113358
29245.9
57371.1
62655.2
65921.5
68007.7
69323.8
69926.8
94311.1
94767.6
95782
97632.7
100665
107597
115302
113232
25485.8
56654.2
62465.2
65901
68051.9
69380.1
69985.5
94213.6
94655.7
95655.5
97497.3
100493
107434
115145
113065
24876.8
56395.8
62453.7
66050.3
68205.8
69526.4
70129.9
94082.3
94492.7
95456.6
97132.6
101758
106920
114786
112782
25779.8
56856
64216.6
66449.5
68510
69777.1
70365.5
93913.5
94278.3
95145.4
98241.2
101399
107222
115385
112306
27060.4
61155.8
66535.4
68473.3
69022.1
70159.6
70686.1
93734.3
94071.3
96282.2
98028
101800
107341
114949
111528
31502.9
64089.3
69062.6
69415.8
70861
70669.9
71063.7
93645.6
93968.6
96197.9
97863.2
101971
107099
114498
110529
51945
69023.9
71442.4
71611.2
71453.5
71153.1
71449.2
93602.1
93909.7
96120.2
98515.3
101871
106881
113994
108986
63736.1
74179.8
73904.9
73530.8
72106.5
71517.5
71734.4
93623.1
93939.9
96111.6
98479.6
101811
106730
113550
107227
74400.3
78045.2
75669.4
74446.2
72481.2
71708.8
71931.5
93689.3
94016.5
96171.1
97797.2
101803
106703
113401
106589
83484.6
78442.4
75808.7
73803
72592.9
71678.3
71935.9
93842.1
94197.9
95035.1
97957.4
101583
106824
113646
107446
66611.7
74157.1
74258.2
71719.6
70735.9
71452
71812.7
93985.8
94381.7
95312.3
96911.9
101290
105919
113103
109113
48276.3
66608.2
68437.1
68736.2
70216.3
71141.5
71581.7
94087.3
94517.6
95486.6
97268.7
100151
106604
113867
110522
39385.6
61032.5
64815.7
67925.2
69727.2
70826.1
71325.1
94153.2
94599
95586.2
97380.5
100327
107038
114381
111547
28576.6
58670.5
64084.7
67362.3
69361.4
70571.6
71114.3
94174.8
94624.7
95619.2
97429.7
100381
107182
114630
112080
25949.3
57625.2
63719.5
67098.7
69162.1
70423.3
70989.2
89010.2
88945.1
88789.3
88548.6
88585.1
92805
96752.7
110208
36143.9
36565.9
48689.2
55719
60371.3
63103.4
64333.2
88943.1
88872.7
88712
88466.6
88518.1
92724.1
96678.7
109983
5657.42
35216.8
48408.8
55698
60419.4
63162.4
64393.9
88828.9
88748.3
88579.9
88367.1
88389.7
92546.1
96504.8
109814
5821.8
34891.3
48543.9
55918.4
60612.7
63335.1
64551.5
88682.6
88568.3
88380
88292.4
91128
92367
96155.4
109561
2803.89
35326.1
49070.4
56579.7
61024.6
63650.5
64820.2
88506.6
88360.4
88219.3
90228.5
90981.9
94061.6
97018.8
109342
7692.99
35878.6
50435.4
57947.8
61696.4
64147.1
65201.7
88331.5
88246.5
89756.6
90012
92105.4
94672.2
96645.5
108661
10123.2
38126
52233.7
58956
63038.4
64743.9
65652.9
88253.4
88175.5
89579.6
89883.7
92622.3
94392.5
96269.1
108203
8756.28
41795.5
54418.5
60536.6
63799.2
65270
66065.7
88214.8
88128
89489.2
90840.4
92484
94179
95919.5
107649
12019.5
45616.5
56735.3
62035.4
64504.7
65678.1
66368.5
88237.5
88157.6
89486.1
90810.6
92431.1
94063.2
95672.4
107220
5155.59
50107.7
58559.8
62903.7
64887
65862.8
66539.5
88298.7
88206.9
89571.9
89880.8
92461.3
94086.8
95636.9
107096
26052.2
52423.8
58613.3
62693.6
64857.7
65784.9
66501.9
88449.8
88301.3
88141.4
89958.3
91946.1
94268.3
95849.2
107358
2186.44
43786.9
56493.2
61151.4
63429.5
65398.2
66295.9
88597.7
88476.1
88276.5
88134.2
90849.4
92005.4
95377.5
108162
6153.45
39927.6
52895.6
58740.2
62689.9
64967
65991.1
88714.1
88626.1
88437.9
88185.3
88143.9
92050.7
95589.7
108624
2776.83
38241
50740.1
57738.3
62073.2
64574.6
65689
88793.5
88716.9
88538.2
88254.8
88249.4
92251.8
95950.9
109059
6423.24
36709.9
49851.5
57057.8
61653.2
64284.5
65455.9
88823.4
88751.1
88577
88299.6
88281.4
92379.5
96144.5
109308
2684.33
35888.7
49551.4
56775.8
61440.9
64128.1
65323.8
83521.6
82874.4
81523.6
79358.8
79057.1
77983.2
80599.3
2344.13
27336.4
40972
49328.5
55109.2
58569.9
60179.3
83446.2
82794.2
81437.9
79275.1
78976.7
77903.1
80527.1
2295.58
26706.4
40835.9
49346.5
55152.9
58620.9
60230.1
83324.2
82666.4
81294.1
79130.1
78879.2
77783.8
80368.7
2300.23
26461.8
41062.7
49546.6
55330.4
58783.1
60370.2
83178.1
82508.2
81098.1
79121.9
79001.1
77560.3
80058.6
2325.12
26814.2
40362.1
50164.8
55703.1
59084.6
60614.7
83036.1
82352.7
81089.7
81032.4
79371.4
79463.8
80523.9
2273.9
25186.6
40579.9
50426.1
56305.8
59550.5
60968.3
82895.6
82337.4
82442.6
81148.5
80581.2
80245.1
80223.4
2262.25
26253.5
41449.1
51317.9
56866.8
60021.1
61396.4
82829
82280
82318.5
81117.5
81244.2
80087.8
79976.1
2294.21
27936
43180.6
52237.8
57637.7
60457.8
61757.8
82793.9
82248
82254.9
81968.6
81251.4
79969.3
79797.3
2297.46
29132.7
44923.3
53386.8
58236
60835.8
62038
82825
82278
82268.2
81982.1
81238.4
79931.9
79726.2
2647.86
28545.8
45955.4
54120.5
58603.6
61013.4
62197.4
82884.4
82323.8
82354.3
81170.3
81205.5
79992.2
79800.8
2265.52
27335.4
45594.9
53953
58602.6
60956.7
62164.9
83003.2
82328.9
81058
80962.5
80532
80119.1
80017.6
2278.43
27042.8
43985.9
53001.1
57789.9
60652.8
61935.3
83125.6
82461.6
81081.1
79088.4
78948.8
77542.5
79433
2285.16
26724.2
42932.4
51926.8
57114.4
60213.6
61625.9
83237.6
82586
81222.1
79066.4
78754.9
77553.9
79928.7
2373.83
28134.1
42685.5
51003.4
56548.2
59832.6
61338.3
83321.7
82672.8
81321.2
79153.2
78852.5
77675.8
80149.4
2310.76
27559.8
41977.4
50471.6
56192.4
59567.7
61127.2
83356.8
82710.9
81360.4
79188
78845
77719.8
80241.3
2299.7
27250.6
41793.9
50244.4
56019.4
59432.2
61009.3
78832.2
77650.6
75163.9
70791
68502.8
60790.3
56359.5
6774.81
2286.57
26073.1
38462.5
47144.6
53010.1
56548.6
58238.7
78740.8
77551.6
75049.3
70659.7
68380
60675.8
56266.3
2485.94
2297.27
25445.4
38423.3
47162.9
53023.5
56571.4
58259.1
78591.4
77392
74852.2
70400.4
68177
60475.4
56141.8
2397.67
2296.92
21847.5
38678.4
47286.1
53128.3
56666.2
58334.1
78411.8
77205.8
74568
70130.9
67892.4
60149.2
56017
2351.38
2317.66
22467.1
36369.2
47636.6
53345.1
56854.2
58473.5
78245.6
77003
74281.6
72884.6
67380.7
62740.3
57585.1
2377.19
2272.79
20752.1
35839.6
46626.6
53711.2
57163.1
58689.2
78101.7
76852.9
76106.1
72553.2
69117.3
63824.4
57300.2
2285.63
2217.49
21917.6
36499.4
47375.5
53381.3
57437.6
58973.6
78002.9
76739.6
75973.3
72283.4
69825.8
63634.5
57130.4
2312.28
2294.17
24381.4
38723.9
47840
54001.2
57710.1
59205.5
77961
76706.4
75904
73655.6
69758.4
63573.8
57041.2
2545.28
2293.45
27264.2
41441.3
48978.4
54588
57991.9
59415.5
78012.7
76761.8
75948.8
73707.5
69800.9
63624.1
57085.4
2307.33
2237.22
27296.3
43136.1
49960
54982.5
58158.4
59556.5
78112.4
76882.9
76099.9
72473.9
69963.9
63779.8
57257.9
2581.73
2264.36
23169.5
41665
49866.5
54972.8
58164.7
59565.8
78250
77028.9
74371.8
72884.6
69359.7
64058.4
57674.8
3006.29
2264.93
20950.9
38723.9
48981
54842.9
57978.2
59414.2
78395.4
77209.7
74627.6
70269.7
67892.7
60298.3
56251.3
2631.25
2279.25
21440.1
38318.1
48899.1
54367.2
57672.2
59217.3
78536.2
77357.9
74860.2
70474.3
68144.6
60508.4
56306.7
2436.7
2323.64
24271.6
39894.3
48356.6
54013.1
57430.4
59041.6
78643
77468.9
74998.5
70644.5
68344.7
60639.9
56309.4
2321.47
2299.85
26527.4
39339.4
48060.8
53797.2
57271.6
58917.5
78690.5
77520.8
75056.2
70704.9
68401.5
60681.2
56238.5
2357.46
2299.05
26413.9
39298
47904.8
53715.7
57185.4
58837.1
75784.4
74203.1
70833.7
64850.5
54473.4
44389.8
19352.1
2392.29
2299.23
28104.1
40225.8
48438.7
53886.8
57157.3
58715.6
75664.1
74068.7
70662.7
64635.8
54185.9
44133.2
19183.6
2291.44
2302.83
27632.5
40116.5
48376.6
53839.8
57127.5
58688.4
75460.5
73843
70380.3
64289.2
53732.8
43640.2
19181.2
2296.14
2302.04
22435.9
40056.3
48368.9
53817.2
57107.7
58665.9
75202.8
73572.8
69978.9
63828.7
57826.8
43092
19854.7
2278.69
2305.51
22748.3
36369.5
48420.6
53818.3
57107.3
58655.9
74947.5
73279.7
69587.4
66102.2
57330.9
46431.7
25442.1
2280.22
2292.11
20200.4
35201.7
46178.9
53889.9
57177.3
58669.5
74733.6
73003.1
71116.8
65734.5
59239.1
47928.1
25519.2
2224.62
2258.83
22129.3
35854.2
46632.7
52505
57206
58728.7
74573.8
72810.4
70976
65438.6
60012.3
47715.3
25393.7
2258.22
2292.27
29099
39013.2
46347.4
52808.7
57256.9
58777.5
74518.3
72762
70906.5
66865.5
59913.3
47762.8
25482.4
2150.46
36952.3
46383.1
43182
47291.3
53182
57392.5
58881
74596.2
72855.4
70979.7
66953.5
60042.9
47976.4
25688.2
2290.72
2279.36
65937.4
52238.5
49288
53663.9
57551.7
58996.2
74761.4
73070
71187.7
65789.3
60340.7
48186.7
25771.7
2237.02
2204.71
46967.4
49203.1
49526.4
53841
57655.1
59074.9
74975.9
73345.7
69769.8
66279.5
59740.5
48565.2
26378.5
2188.47
2252.39
25229.8
39950.6
48325
54600.8
57654.7
59065
75206.9
73616.5
70124.9
64144.8
58112.6
43717.8
22102.3
2262.11
2274.93
21768.5
38091.1
49249.2
54434.2
57565.7
59055.2
75420.7
73839
70453.7
64491.6
54109.6
43978.4
20284.8
2306.33
10159.5
24377.2
41105.7
49111
54370
57549.2
59057.7
75575.5
74005.9
70656.2
64704.1
54328
44175.2
19335.4
2295.64
2306.47
28481
40918.4
49024
54344.4
57548.1
59065.5
75647.6
74086.9
70758
64819.9
54464.7
44328.4
19271
2280.19
2304.26
28563.9
40947.2
48984.7
54337.3
57536.8
59059.8
75027.7
73416.5
69967.4
63973
53798.6
41430.3
9494.21
2320.95
7968.65
35277.3
45910.7
52919.7
57445.4
60097.4
61358.6
74871.2
73236.8
69721.2
63620.5
53352
40577.9
7699.31
2290.69
7135.73
34951.1
45660.6
52747.3
57313.4
60003.1
61275.3
74604.1
72931.7
69317.7
63084.5
52942.8
39513.6
10220.1
2300.52
2307.78
26898.6
45487.2
52552.2
57116.3
59852.2
61140.9
74260.8
72558.7
68819.8
62494.3
54543.4
38341.3
10588.6
2289.49
2308.69
26844.6
40466.2
52271.1
56850.1
59644.2
60962.4
73908.3
72163.6
68350.5
63438.8
53554.3
39778
17768.6
2274.4
2298.94
22944.2
38256.5
48952.7
56582.6
59445.9
60760
73606.9
71808.8
68957.6
62827.4
54446.8
40302
17538
2869.47
2297.41
25151.1
37982.5
48722.3
54256.6
59196.7
60579.2
73373.2
71525.8
68679.8
62366
54700.1
39817.3
17280.2
4193.1
2315.3
38357.9
38403.6
46722.9
53946.3
58968.4
60412.6
73298.8
71446.3
68577.6
63344.7
54551.6
40188.2
18650.8
3606.36
2282.78
2920.87
25255.5
44875.2
53748.3
58888
60370.2
73394.8
71574.7
68688.2
63463.6
54842.6
41137.4
21212.4
2112.79
2263.67
2314.55
36270.2
46468.8
54033.5
58989.9
60442.4
73623.4
71875.6
68974.6
62935.6
55327.2
41049.1
18586.5
2252.59
8807.64
39963.5
45733.5
48542.9
54465.8
59214.4
60608
73926.3
72235.5
68587.3
63623.5
55339.7
41604.5
19192.6
2239.9
2293.53
27194.1
40351
49355.9
56610.4
59472.1
60789.2
74248.8
72604.5
69012
62965.7
54909.3
39503.5
18430.7
2300.76
2295.69
24667.1
41094.6
52454.1
56953
59692.1
61001.6
74542.8
72918.2
69416.8
63383.8
53599.8
40105.2
13025.6
2302.84
7537.15
28330.9
46133.9
52867
57281.8
59940.4
61200
74755.1
73154.6
69713.9
63724
53495.5
41014.2
7474.88
2275.71
11206.5
36311.2
46401.1
53100.4
57504
60108.6
61344.2
74859.9
73275
69879.5
63948.2
53735.2
41530.2
7057.49
2264.24
9968.49
36275.2
46558.7
53228.3
57616.8
60184.6
61409
76779.7
75620.8
73192.7
69302.4
61675.2
52476
27448.3
2328.61
38029.7
52497.1
56422.1
60700
63378.3
64962.8
65748.3
76589.2
75392.1
72859.5
68724.4
60637.7
50783.6
17529.3
2320.35
37240.3
51887.7
55938.4
60385.7
63152.5
64805.2
65612.8
76263.2
75005.5
72321.6
67816
61038.9
47348.6
18362.5
6167.3
19914.9
40706.1
55638.1
59878.1
62771.6
64533.6
65376.1
75842
74508.4
71611.2
66827.7
59306.8
45065.4
18963.6
2305.61
8660.05
38065.2
49287.5
59201.9
62210.8
64133.8
65045.9
75395.3
73968.5
70896.4
65979.7
57261.3
43441.8
19791
2261.87
5830.61
30669.5
45671.1
54921.5
61631.7
63683.9
64654
74996.2
73497
70390.7
64697.8
56183.9
41844
18585.9
2486.27
6708.28
29200.6
43456.1
54066.5
58537
63200.5
64258.1
74689.2
73104.7
69783.6
63783.6
55206.9
39856.1
17294.4
2294.94
3676.05
28551
42999.3
51571.5
57798.5
62722.7
63889.9
74576.9
72966
69545.9
63901.2
54447.5
38782.1
9079.62
2222.32
2333.7
6995.47
28081.3
48789.6
57147.6
62403.4
63687.1
74679
73116
69679.3
64054.3
54847.1
40795.7
41333.5
2518.11
2291.24
2291.11
31361
47712.7
56874.8
62374.2
63687.3
74965.4
73511.3
70133.8
64570.5
56048.3
41888.7
19808.4
2316.1
5499.56
2991.4
34152.8
49154
57222.5
62678.6
63915.3
75352.4
73978.5
71065.4
65742.2
57564.9
44153.1
20704.9
2289.18
2503.84
25263.3
40111.5
52811.6
60772.9
63172.6
64284.3
75761
74489.3
71761.6
67317.6
59377.4
46679
22166.2
2233.11
6699.29
32227.1
47852
58426.4
61663.3
63724.8
64711.1
76129.2
74923.3
72371.3
68133.6
61940.2
48173
20151.5
2734.09
16164.2
40028.4
55514.5
59586.8
62460.9
64234.6
65092.5
76398.1
75239
72791
68817.3
60775.2
51592.6
17279.4
2322.34
37008.6
52351.5
56062.7
60281.2
62960.6
64564
65359
76536.2
75406.2
73036
69241.3
61445.1
52559.8
22464.9
2321.25
37808.6
52894.5
56553.5
60631.5
63209.4
64728
65489.7
80536.2
80161
79489.2
79513
79599.8
86656.6
125341
123039
92787.4
76393.7
71264.8
71027.3
70922.6
71115.4
71298
80326.5
79896.4
79099.5
78788
78193.1
85293.2
123427
108290
89503.5
75187.5
70542
70584.2
70628.2
70914.5
71128.5
79964.7
79444.1
78459.3
77133.1
76613.8
70708
77412.9
64999.7
63925.5
64800.5
69307.5
69591.6
70106.9
70557.4
70824.8
79491.6
78852.8
77539.8
75733.3
70827
64837.1
52155.6
13408.6
33832.7
60533.5
63413.3
68417.7
69295.7
70026.5
70392.4
78977.8
78191.5
76607.4
72714.9
68014.7
58610.5
36493.4
2275.42
21926.6
49117.7
58309
63773.7
68453
69389.9
69878.6
78504.1
77601.2
74763.4
70978.4
64534.8
53448.4
30559.5
2573.79
24089.8
42021
53594.4
62062
64824.7
68737.1
69345.3
78131.8
77119.5
73925.2
69583.4
61829.1
48092.3
24608.7
2335.88
2118.56
22699.8
54449.8
59282.7
63762.8
68099.5
68846.2
77974.2
76914.6
73545
68646.9
59861.6
41957.3
2353.58
2303.64
8044.7
27598.6
77251.5
57835.7
62776
67634.8
68526.7
78061.8
77049.3
73655.4
68767.4
60095.2
42295.2
2276.86
2234.17
2308.91
2211.42
46274.9
54057.7
62171.3
67523.1
68464.4
78372
77481.1
74219.4
70368.6
62488.2
50001.6
28369.7
2343.58
2398.86
12840.3
39098.6
54574.6
62636.7
67864.8
68706.8
78806
78039.8
76513.8
71928.4
65981.1
56713.2
40553.7
2286.52
18237.9
35956.9
48023.7
60106.7
67030.4
68479.2
69187.3
79272
78668
77464.7
75859.1
70358.1
66272.2
51315.8
2304.92
27561.2
51269.1
60031.4
66970
68244.3
69239.7
69733.8
79694.7
79211.7
78335.1
77247.9
77363.8
69785.8
73455.8
74659.1
68811.8
63466.6
68485.6
68757.5
69358.7
69909.5
70233.1
80005.5
79608.8
78887
78807.8
78404.1
86553.5
127359
108671
90792.8
75395.4
70055.9
70023.9
70047.4
70340.6
70572.7
80167
79820
79202.1
79423.5
79418.1
87579.7
129039
115739
93474.7
76598.9
70914
70575.5
70398.6
70564.9
70746.3
85177.6
85556.3
86358.8
89177.8
94416
99401.3
124779
131055
106888
92074.1
84602.3
80841.8
78518.6
77567.9
77202.1
84988.4
85316.7
86060.4
88766.2
93697.9
99386.6
126929
132657
108667
91643.5
84115.2
80467.2
78251.4
77371.4
77034.3
84651.4
84864.2
85528.1
87115.1
91620.2
94965.4
115853
143250
111674
90319.3
82506.5
79387.8
77729
76996
76727.4
84200
84294.6
84632.9
85700.6
85877.6
92452.3
114696
148449
110139
87365.3
79297.3
77914.9
76864.6
76441.5
76273.7
83698.9
83640
83641
81974
82797.2
83958.2
94569.1
170663
100468
79411.3
74507.7
74187.9
75874.5
75756.5
75741.3
83226.2
82982
81172.2
80209.6
77918.3
75954.8
78364.1
128408
85620.2
68094.7
67530.1
71582
72511.7
75005
75178.7
82849.7
82505.6
80304.4
78769.1
73962.9
67914
53925.6
2557.14
29225.6
36587.3
55498.1
66400.2
70966.6
74341.9
74654.7
82663.9
82276.7
79839.6
76761.7
71617.8
60169.4
24164.6
2894.35
49102.2
2277.72
39752.4
61847.3
69774.1
73881.3
74307.7
82704
82337.6
79862.2
76757.6
71563.9
59953
21710.3
2924.46
75.6354
2086.91
27265.2
59356.8
69346.2
73782.9
74227.6
82956.7
82683.2
80349.5
79026.3
73904.7
68446.8
58746.7
3102.96
2252.78
32056.4
49046.3
63550.4
70046
74103.5
74455.5
83344.9
83245.2
83135.7
80487.1
78186.1
76878.4
82962.2
93458.4
63974.9
59801
62681.3
70069.1
74387
74708.4
74884.7
83784.6
83855.1
84147.6
85141.7
83997.1
89105.1
99342
113322
97843.4
77594.8
74596
76233.5
75598.5
75447.6
75409.2
84193.7
84405.4
85082.3
86701.2
91298.6
94241.8
115518
141670
111152
88520.7
81138.5
78191.7
76687.6
76092.4
75894.7
84491.6
84833.5
85586
88456.6
93574.4
99631.6
129320
140143
110460
91280.7
83274.6
79593
77366.9
76538.1
76236.5
84641.6
85040.6
85852.8
88895.4
94279.6
99431.4
127883
135017
109902
91854.1
83966.8
80097.7
77701.7
76759.6
76408.5
89430.7
90115.5
91292.6
93506.9
98419.5
97749.2
101866
105615
99190.5
95404
90929.4
87213.2
84580.4
83242.6
82602.6
89318
89990.7
91211.9
93706.3
98647.9
98765.8
104134
109196
102034
95829.9
91148.9
87167.7
84460.1
83116.2
82481.7
89103.5
89697.3
91070.9
93429.8
97850.9
100605
106906
118591
105719
97273.4
90616.6
86735
84180.5
82845.1
82251.7
88787.9
89328.9
90584.9
93187.6
95029.4
102255
113907
128479
113582
97951.3
90006.4
85971.7
83618.6
82429.2
81901.9
88403.2
88837.4
89874.6
90422.9
94023.8
100012
114909
140356
118670
98338.9
88220.3
83949.3
82817.8
81870.3
81464.3
88015.4
88270.4
87875.3
89122.9
90857.7
96363.4
113269
150100
118813
94869.5
84713.8
82210.4
80703.6
81225.7
80985.5
87712.6
87896.9
87273.7
88066
88180.6
92092.6
103575
148239
112497
84035.1
77681
78706.1
79633.3
80722.5
80564.6
87535.2
87689.1
86859.5
86383.4
86392.1
87773.9
89538.3
83185.8
122917
54034.3
66063.6
74864.5
78758.5
80372.3
80280.3
87499
87654.5
86757.6
86178.9
85995.9
86825.6
85968.1
72190
73167.8
47690.2
67786.1
74185.7
78473.6
80266.1
80178.6
87613.2
87813.9
86956.9
87608.5
87030.4
89781.8
97875.5
129536
102368
76734.4
74613.6
77059.2
78817.8
80431.8
80291.6
87860.8
88189.6
88969.4
88560.5
89434.5
92881.1
101922
107055
100053
86410.5
80387.3
80556.7
81439.2
80826
80570
88162.8
88614.1
89640.6
91751.6
92532.3
97827.9
104926
113977
104940
92168.7
85944.1
84097.5
82253.8
81346.4
80939
88441.1
88981.2
90231.3
92329.7
96259.1
98899.3
105358
115477
103195
94582.5
88758.7
85271.3
82963.6
81799.7
81285.3
88626
89277.3
90414.5
92842.3
97756.1
97551
103242
110488
101096
94662.8
89981.5
86025.9
83365.8
82113.6
81523.8
88708.2
89389.6
90506.7
92738.1
97774.8
96571.1
101295
107252
99796.2
94396.5
90017.2
86198.2
83541.4
82251.9
81637.8
92618.4
93191.8
94182.2
94882.4
98076.1
97382.2
97655.3
99493
96236
95618
93010.9
90643
88752.9
87602.8
86977.3
92600.3
93205.7
94244.6
95365.6
98698.7
98327
99443.3
101195
98452.9
96397.7
93687.3
90870.4
88803.5
87582.3
86933.2
92560.9
93153.6
94415.7
96095.6
99161
100818
104431
109586
103805
98512.2
94288.9
91168.8