/*--------------------------------*- C++ -*----------------------------------*\
| =========                 |                                                 |
| \\      /  F ield         | OpenFOAM: The Open Source CFD Toolbox           |
|  \\    /   O peration     | Version:  v2012                                 |
|   \\  /    A nd           | Website:  www.openfoam.com                      |
|    \\/     M anipulation  |                                                 |
\*---------------------------------------------------------------------------*/
FoamFile
{
    version     2.0;
    format      ascii;
    class       volScalarField;
    location    "0.024";
    object      p_rgh;
}
// * * * * * * * * * * * * * * * * * * * * * * * * * * * * * * * * * * * * * //

dimensions      [1 -1 -2 0 0 0 0];


internalField   nonuniform List<scalar> 
449343
(
107472
107631
107902
108189
108359
108224
107547
106264
104420
102223
99961.1
97907.3
96252
95104.7
94520
107482
107642
107915
108205
108378
108247
107575
106297
104459
102267
100008
97954.7
96297.9
95148.7
94562.9
107501
107663
107941
108237
108415
108292
107628
106360
104535
102353
100101
98046.9
96386.6
95233.5
94645.3
107528
107693
107976
108280
108466
108354
107704
106450
104642
102475
100231
98177.3
96511.4
95352.1
94760.3
107560
107729
108019
108333
108528
108429
107795
106560
104773
102623
100389
98334.8
96661.3
95493.9
94897.3
107594
107766
108064
108388
108594
108510
107894
106681
104915
102783
100559
98502.8
96820.6
95644.3
95042.4
107625
107802
108107
108440
108656
108587
107989
106795
105050
102936
100716
98660.4
96970.6
95786.3
95179.8
107652
107831
108141
108482
108707
108653
108069
106893
105161
103059
100843
98786.9
97092.7
95903.9
95294.8
107671
107851
108164
108510
108741
108698
108126
106960
105237
103137
100923
98867.5
97174.1
95985.5
95376.4
107682
107862
108175
108523
108757
108718
108151
106989
105266
103165
100952
98898.1
97210.5
96027.2
95420.6
107687
107865
108176
108522
108755
108716
108147
106981
105253
103144
100932
98883.4
97206.1
96032.7
95430.5
107686
107862
108169
108510
108739
108697
108122
106947
105209
103094
100880
98838.3
97171.6
96006.3
95411.6
107683
107857
108159
108495
108720
108672
108088
106903
105155
103033
100818
98782.9
97127.6
95973
95382.7
107679
107851
108151
108483
108702
108649
108056
106863
105106
102978
100763
98734.3
97088
95941.3
95355.3
107676
107848
108146
108475
108692
108635
108038
106839
105077
102947
100732
98706.5
97064.8
95922.3
95338.6
107288
107494
107865
108305
108660
108748
108205
106859
104763
102227
99668.3
97418.4
95655.6
94456.6
93851.8
107297
107505
107878
108322
108680
108773
108235
106895
104806
102277
99721.3
97470.4
95704.8
94503.2
93897
107315
107526
107904
108355
108720
108821
108289
106962
104889
102375
99826.3
97572.6
95800.6
94593.3
93984.1
107341
107555
107941
108401
108775
108884
108365
107053
105006
102515
99978.4
97720
95937.1
94720.5
94106.2
107372
107591
107986
108459
108844
108960
108462
107178
105147
102690
100168
97901.9
96103.2
94873.7
94252.7
107405
107629
108034
108521
108919
109049
108568
107314
105319
102883
100375
98099.8
96282.2
95037.5
94408.6
107437
107665
108079
108578
108987
109136
108676
107444
105484
103069
100575
98287.9
96451.2
95192.9
94556.7
107463
107694
108113
108622
109043
109206
108765
107514
105612
103211
100724
98432.8
96586.4
95320.5
94679.8
107481
107713
108135
108648
109077
109252
108829
107638
105708
103300
100808
98518.7
96673.6
95406.7
94765.6
107492
107723
108142
108656
109090
109264
108849
107666
105731
103318
100819
98539.9
96705.8
95446.1
94808.9
107496
107724
108139
108647
109079
109253
108838
107644
105694
103281
100775
98503.1
96689.8
95443.6
94813.2
107495
107720
108129
108630
109055
109230
108800
107591
105632
103199
100689
98432.7
96637.7
95409.6
94789.1
107491
107714
108117
108610
109029
109199
108759
107533
105553
103106
100595
98353.9
96579.6
95365.4
94750
107488
107708
108107
108594
109005
109168
108719
107478
105483
103026
100517
98287.8
96528.4
95325.5
94717
107486
107705
108101
108585
108992
109151
108695
107446
105443
102982
100474
98251.2
96499.1
95302
94696.6
106823
107138
107737
108541
109365
110027
109890
108382
105608
102183
98895.9
96202.1
94206.6
92898.1
92252.1
106831
107148
107751
108559
109388
110056
109922
108424
105661
102246
98961.6
96263.9
94263.1
92950.7
92302.5
106847
107167
107778
108597
109435
110114
109979
108506
105761
102376
99098.3
96389
94375
93053.3
92400.5
106870
107196
107817
108652
109502
110186
110047
108612
105888
102565
99307.4
96577
94538.2
93200.1
92539.4
106899
107231
107867
108723
109591
110257
110114
108716
106050
102827
99578.6
96816.2
94742.2
93380
92707.7
106929
107270
107922
108797
109691
110349
110226
108890
106297
103113
99896.4
97086.3
94966.4
93575.1
92888.7
106959
107306
107970
108871
109778
110453
110366
109073
106543
103365
100243
97350.4
95183.3
93761.7
93061.5
106983
107334
108005
108919
109847
110550
110513
109084
106734
103555
100439
97538
95350
93913.3
93204.4
107000
107351
108023
108940
109876
110581
110558
109338
106864
103667
100539
97640.7
95451.3
94011
93300.5
107010
107358
108024
108928
109879
110575
110568
109353
106873
103675
100491
97641.5
95472.3
94047.4
93343.3
107013
107355
108011
108904
109844
110554
110543
109294
106775
103593
100346
97548.6
95427.3
94028.6
93336.6
107013
107349
107993
108872
109802
110524
110533
109253
106673
103412
100172
97418
95341.5
93972
93294.5
107011
107342
107976
108840
109753
110472
110472
109140
106532
103233
99992.2
97280.8
95247.1
93904.8
93239.7
107008
107337
107964
108817
109717
110425
110413
109047
106410
103089
99855.9
97173.8
95168.7
93846.1
93190.9
107007
107334
107957
108805
109697
110400
110378
108997
106344
103014
99785.6
97116.8
95125.3
93812.4
93162
105949
106422
107366
108757
110454
112159
113205
111382
107113
101817
97296.9
93993
91727.6
90312.8
89635.3
105954
106430
107379
108777
110483
112192
113235
111431
107177
101897
97378.7
94066.5
91793.3
90373.3
89693.1
105965
106445
107405
108821
110547
112267
113291
111543
107320
102093
97562.7
94220.6
91925.8
90493
89806.4
105981
106469
107445
108890
110641
112374
113244
111702
107436
102422
97874.9
94463.6
92124.6
90667.2
89969
106002
106500
107500
108979
110774
112451
112569
111574
108393
102925
98310.4
94798.8
92382.1
90884.9
90169
106026
106536
107566
109103
110926
111736
112606
111750
108760
104417
98873.7
95195.5
92677.6
91124.5
90386.8
106050
106570
107623
109196
110334
111878
112753
111977
109077
104825
100420
95578.6
92967.5
91359.1
90596.8
106071
106597
107659
109246
110385
111999
112941
112114
109357
105156
100724
95840
93192.6
91551.2
90769.7
106087
106611
107670
109258
110418
112044
113008
112335
109555
105356
100941
95982.8
93319
91669.7
90885.6
106098
106613
107658
109220
111093
112003
113016
112387
109589
105387
99807.1
95962.1
93331.7
91705.5
90930.7
106104
106610
107625
109135
111006
112795
113043
112322
109456
104046
99407.5
95769.1
93238.8
91664.6
90909.8
106108
106605
107600
109081
110904
112743
113800
112518
108549
103607
99032.8
95530.2
93098
91574.1
90841.8
106110
106600
107579
109031
110825
112630
113808
112281
108273
103177
98678.3
95297.4
92948.1
91470.9
90759.8
106112
106597
107565
108999
110770
112553
113719
112114
108045
102898
98438.9
95126.1
92828.8
91383.4
90687.8
106112
106595
107559
108985
110745
112515
113674
112032
107933
102769
98322
95037.4
92764.2
91334.4
90646.6
104470
105116
106457
108586
111563
115281
119268
116675
109394
100350
94157
90380.3
88015.3
86626.5
85990.4
104470
105118
106464
108602
111591
115320
119290
116711
109465
100444
94248.1
90459.7
88087.6
86694.3
86055.5
104470
105123
106481
108645
111677
115431
119377
116821
109697
100704
94471.6
90632.1
88236.7
86830.5
86184.4
104470
105132
106511
108737
111883
115694
117146
117069
111458
101441
94946.4
90932.9
88466.4
87031.9
86372.1
104474
105146
106561
108849
112070
114264
117273
117257
111949
104124
95598.1
91350.7
88779.8
87288.9
86606.6
104482
105172
106639
109095
111272
114563
117495
117463
112380
104956
98235
91938
89138.3
87582.5
86866.2
104491
105185
106668
108546
111377
114786
116725
117083
113128
106454
99055.9
94126.3
89483.5
87857.6
87117.6
104507
105207
106746
108562
111467
114919
116935
117420
113672
107080
99678.9
94597
89872.2
88092.8
87333.8
104522
105217
106701
108573
111486
114969
117035
117675
114006
107471
99986.5
94848.7
89965.5
88251.7
87471.5
104543
105236
106711
109182
111410
114876
117066
117723
114055
106648
99750.4
93006.5
90012.5
88310.1
87526.8
104560
105235
106657
108964
112267
114656
117889
118325
113596
106210
97284.5
92703.3
89879.1
88242.2
87491
104578
105245
106636
108883
112081
116018
117677
118092
113119
103247
96581.7
92323.8
89669.5
88114.1
87393.3
104593
105251
106619
108803
111885
115772
119796
117710
110882
102151
95907.3
91954.2
89451.4
87965.2
87276.8
104603
105257
106613
108772
111809
115650
119659
117442
110468
101673
95528.7
91707.4
89282.8
87842.3
87176.5
104609
105260
106611
108760
111783
115603
119607
117308
110287
101448
95347
91579.9
89192.1
87774.5
87120
102142
102911
104570
107405
111905
118975
124734
130170
116503
95427
88267.9
84808.4
82812.1
81765.4
81324
102132
102902
104564
107408
111925
119002
124747
130188
116522
95475.7
88336.8
84876.5
82884.1
81837.5
81394.9
102112
102886
104555
107410
111969
119093
124795
130259
116615
95621.7
88486.4
85014
83035.3
81984.4
81536.5
102086
102865
104553
107476
112353
116960
124957
130516
116930
100507
88983.7
85241.2
83270.9
82206.7
81745.7
102055
102833
104533
107549
111170
117293
125396
128364
118731
101832
92781
85663.2
83566.8
82483.8
82010.6
102033
102807
104591
107194
111336
116467
123770
127676
119490
105009
93793.1
88647.8
83968.6
82801
82307.7
102011
102771
104585
107249
111512
116552
123024
128103
120858
107049
96367.6
89391.9
84348.5
83105.3
82596.2
102009
102754
104658
107332
110908
116139
123222
128611
121915
108246
97297.5
90052.9
86706.3
83354.8
82845.2
102034
102792
104604
107307
110918
116646
123339
129037
122807
109175
97943.4
90413.4
85048.7
83601.8
83027.7
102080
102852
104630
107216
111499
116641
123298
129129
123016
109485
98068.5
90483.9
85145.1
83702.5
83101.4
102122
102897
104586
107602
111233
117568
124017
129822
122033
107839
95752.2
87576.7
84987.1
83646.3
83053.4
102172
102951
104638
107543
112398
117170
125472
131709
119417
103696
91289
87047.4
84749.8
83483
82925.1
102211
102982
104646
107494
112036
119180
125140
131129
118478
97696.6
90334.6
86631.2
84464.3
83283.2
82769.9
102240
103009
104668
107506
112010
119094
124997
130820
117755
97021.1
89870.9
86329.7
84244.9
83123
82639.2
102255
103023
104678
107507
111997
119074
124961
130671
117415
96667.9
89618.3
86159.3
84125.3
83034.3
82565.7
98748
99491.5
101148
104153
109251
116272
133027
163209
120070
87467.7
77636.8
76536
75945.9
75798.3
75776.5
98723.7
99465.7
101121
104125
109229
116266
133005
163182
119911
87342.9
77624.3
76568.8
76010.7
75871.6
75851
98675.6
99411.6
101056
104028
109104
116237
132919
163139
119833
87353.5
77602.9
76652.5
76153.2
76021.4
76001.9
98606.6
99334.3
100963
103805
108514
116598
132932
163059
119904
87789.4
81387.7
76657.8
76374.2
76251
76228
98514.9
99212.2
100751
103890
108512
115710
129998
163034
121548
92558.5
81833.8
79466.4
76599.6
76543.2
76517.5
98428.3
99047.2
101261
103918
108252
115658
128583
158207
127671
96102
85265.7
80143.4
78888.1
76876.6
76850.4
98374.2
98978.5
101240
103889
108251
115214
128451
158363
130023
98548
88028
82686.5
79394.8
77278.4
77190.6
98347.1
98947.5
101297
103898
108222
115135
128321
158524
133320
101367
89681.5
83679.6
80057.8
77617.2
77452.2
98391.6
98989.5
101257
103913
108223
115080
128197
158654
136856
103649
90904.4
84367.5
80414.3
77850.7
77692
98464
99073.4
101281
103853
108212
115067
128136
158568
137693
104067
91135.8
84517.7
80558.9
77922
77761.9
98566
99254.5
100759
103869
108393
115488
128189
158194
134649
102206
89069.8
82364.9
78329
77896.8
77700.9
98674.2
99392.6
101001
103783
108326
116271
129618
162762
126019
97449
85055.9
78892.6
78112.5
77696.3
77541.2
98753.5
99480.4
101102
104040
109029
116079
132527
162895
123126
90838.3
79888.4
78553
77772.7
77457.8
77348.7
98810.4
99545.1
101183
104149
109188
116169
132724
163065
121447
89340.6
79392.2
78197.9
77505.9
77263.7
77188.1
98838.4
99574.2
101212
104185
109227
116208
132848
163149
120772
88643.5
79076.1
77993.3
77358.3
77154.2
77097.6
94231.7
94692
95712
97571.4
100604
107527
115222
113212
29100
57228.8
62517.8
65784.1
67870.4
69186.5
69789.5
94193.4
94649.9
95664.3
97515
100548
107475
115177
113105
25359.5
56531.6
62347.5
65783.3
67934.2
69262.4
69867.8
94115.5
94557.6
95557.4
97399.2
100395
107331
115040
112958
24770.1
56292.8
62355.6
65952.2
68107.7
69428.3
70031.8
94003.8
94414.2
95378.1
97054.1
101675
106837
114700
112695
25692.7
56772.6
64133.2
66371
68431.5
69698.6
70287
93854.6
94219.4
95086.6
98177.4
101335
107156
115317
112238
26992.9
61088.4
66469.2
68409.6
68963.3
70100.7
70627.3
93695.1
94032
96238.1
97983.9
101754
107293
114901
111480
31455.1
64041.5
69014.7
69371.7
70816.8
70630.7
71024.5
93626
93948.9
96173.4
97838.7
101943
107071
114470
110501
51916.8
68995.7
71414.2
71584.2
71429
71133.4
71429.5
93602.1
93909.7
96115.3
98507.9
101862
106873
113986
108977
63727.5
74171.2
73896.4
73522.2
72101.6
71517.5
71734.4
93642.7
93959.6
96126.3
98491.9
101822
106741
113561
107238
74411.3
78056.2
75680.4
74457.2
72495.9
71728.4
71951.1
93728.6
94055.7
96205.4
97831.5
101834
106734
113431
106620
83515.2
78473.1
75839.3
73834.9
72627.3
71717.5
71975.1
93901
94256.8
95094
98011.4
101635
106874
113696
107496
66661.9
74207.4
74308.4
71773.6
70794.8
71510.9
71871.5
94064.3
94460.2
95390.7
96990.4
101364
105993
113174
109183
48346.2
66679.3
68510.6
68814.6
70294.8
71220
71660.2
94185.4
94615.7
95584.7
97366.8
100250
106697
113957
110612
39475.1
61125.7
64913.8
68023.3
69825.3
70924.2
71423.2
94270.9
94716.7
95703.9
97498.2
100445
107151
114491
111656
28685.8
58783.3
64202.4
67480
69479.1
70689.4
71232
94312.1
94762
95756.6
97567.1
100518
107314
114760
112208
26078.1
57757.6
63856.9
67236
69299.4
70560.6
71126.5
88872.9
88807.7
88652
88411.3
88447.7
92662.7
96608
110062
35998
36423.7
48551.8
55581.7
60234
62966.1
64195.9
88825.4
88755
88594.3
88348.9
88400.4
92601.5
96553.7
109856
5531.12
35094.2
48291.1
55580.3
60301.7
63044.7
64276.2
88730.8
88650.2
88481.8
88269
88291.6
92443.1
96399.4
109707
5715.13
34788.3
48445.8
55820.3
60514.6
63237
64453.4
88604.1
88489.8
88301.6
88213.9
91044.6
92283.6
96069.6
109473
2717.15
35242.7
48987
56501.2
60946.1
63572
64741.7
88447.8
88301.5
88160.5
90164.7
90918.1
93995.4
96951.4
109274
7625.55
35811.2
50369.2
57884
61637.6
64088.3
65142.8
88292.3
88207.3
89712.5
89967.9
92058.8
94624.4
96597.7
108613
10075.3
38078.1
52185.8
58911.9
62994.3
64704.7
65613.7
88233.8
88155.9
89555.1
89859.2
92594
94364.3
96240.9
108175
8728.07
41767.3
54390.3
60509.6
63774.7
65250.4
66046.1
88214.8
88128
89484.3
90833
92475.4
94170.4
95911
107640
12010.9
45607.9
56726.7
62026.8
64499.8
65678.1
66368.5
88257.2
88177.3
89500.8
90822.9
92442.1
94074.2
95683.4
107230
5165.76
50118.8
58570.9
62914.7
64901.8
65882.4
66559.2
88337.9
88246.1
89606.2
89915.1
92492
94117.5
95667.5
107126
26082.9
52454.5
58644
62725.5
64892
65824.1
66541.2
88508.7
88360.1
88200.3
90012.3
91997.6
94318.5
95899.5
107408
2227.99
43837.2
56543.4
61205.4
63488.4
65457.1
66354.8
88676.2
88554.5
88355
88212.7
90923
92079
95448.7
108231
6223.34
39998.8
52969.1
58818.7
62768.4
65045.5
66069.6
88812.2
88724.2
88536
88283.4
88242
92143.9
95680.4
108713
2866.28
38334.2
50838.2
57836.4
62171.3
64672.7
65787.1
88911.2
88834.6
88655.9
88372.5
88367.2
92364.6
96061.3
109168
6532.38
36822.7
49969.2
57175.6
61771
64402.2
65573.6
88960.8
88888.4
88714.3
88436.9
88418.8
92511.9
96274.5
109436
2812.53
36021.1
49688.8
56913.1
61578.2
64265.4
65461.1
83384.2
82737
81386.2
79221.4
78914.9
77841
80454.6
2199.43
27194.2
40834.6
49191.1
54971.8
58432.6
60042
83328.5
82676.4
81320.1
79157.4
78854.1
77780.4
80402.1
2196.34
26583.7
40718.2
49228.8
55035.2
58503.1
60112.4
83226.1
82568.3
81196
79032
78776.2
77680.7
80263.2
2219.42
26358.8
40964.6
49448.5
55232.3
58685
60272.1
83099.6
82429.7
81019.7
79043.4
78917.7
77476.9
79972.7
2255.16
26730.8
40278.7
50086.3
55624.6
59006.1
60536.2
82977.2
82293.9
81030.9
80968.6
79307.6
79397.6
80456.4
2225.24
25119.1
40513.6
50362.4
56246.9
59491.6
60909.4
82856.4
82298.2
82398.4
81104.3
80534.6
80197.2
80175.6
2219.67
26205.7
41401.3
51273.7
56822.7
59981.9
61357.2
82809.3
82260.4
82293.9
81093
81216
80059.6
79947.9
2270.39
27907.8
43152.4
52210.8
57613.2
60438.2
61738.2
82793.9
82248
82249.9
81961.2
81242.8
79960.7
79788.7
2292.35
29124.1
44914.7
53378.3
58231.1
60835.8
62038
82844.6
82297.6
82283
81994.4
81249.4
79942.9
79737.3
2656.14
28556.8
45966.4
54131.5
58618.3
61033
62217
82923.7
82363
82388.7
81204.6
81236.1
80022.9
79831.5
2266.56
27366.1
45625.5
53984.9
58636.9
60996
62204.1
83062.1
82387.8
81116.8
81016.5
80583.5
80169.4
80067.9
2279.35
27093.1
44036.2
53055
57848.8
60711.7
61994.2
83204.1
82540.1
81159.6
79166.9
79022.4
77616.1
79504.1
2288.35
26795.4
43006
52005.2
57192.9
60292.1
61704.4
83335.7
82684.1
81320.2
79164.5
78848.1
77647.1
80019.4
2464.49
28227.3
42783.6
51101.5
56646.3
59930.7
61436.4
83439.4
82790.5
81438.9
79271
78965.3
77788.6
80259.7
2418.65
27672.6
42095.1
50589.3
56310.2
59685.4
61244.9
83494.2
82848.3
81497.7
79325.4
78977.4
77852.3
80371.3
2407.36
27383.1
41931.3
50381.8
56156.7
59569.5
61146.7
78694.8
77513.3
75026.6
70653.7
68360.5
60648
56214.8
6628.27
2168.6
25935.7
38325.2
47007.2
52872.8
56411.2
58101.3
78623.1
77433.9
74931.6
70542
68257.3
60553.2
56141.3
2389.21
2195.24
25327.7
38305.6
47045.2
52905.8
56453.7
58141.4
78493.3
77293.9
74754.1
70302.3
68073.9
60372.4
56036.3
2291.12
2214.82
21744.4
38580.3
47188
53030.2
56568.1
58236
78333.3
77127.3
74489.5
70052.4
67809
60065.8
55931.2
2306.64
2250.53
22383.8
36285.8
47558.1
53266.6
56775.7
58395
78186.8
76944.1
74222.7
72820.8
67316.9
62674.1
57517.7
2348.13
2261.26
20684.7
35773.4
46562.8
53652.4
57104.3
58630.4
78062.5
76813.7
76062
72509
69070.7
63776.6
57252.4
2285.41
2215.77
21869.8
36451.6
47331.3
53337.2
57398.3
58934.3
77983.3
76720
75948.8
72258.9
69797.6
63606.3
57102.2
2309.49
2275.47
24353.2
38695.7
47813
53976.7
57690.5
59185.9
77961
76706.4
75899.1
73648.2
69749.8
63565.2
57032.7
2536.08
2287.05
27255.6
41432.7
48969.8
54583.1
57991.9
59415.5
78032.3
76781.5
75963.5
73719.7
69811.9
63635.1
57096.5
2317.33
2238.23
27307.3
43147.2
49971.1
54997.2
58178
59576.2
78151.6
76922.1
76134.3
72508.2
69994.6
63810.5
57288.6
2595.23
2267.08
23200.1
41695.6
49898.4
55007.2
58203.9
59605
78308.8
77087.8
74430.6
72938.6
69411.3
64108.7
57725.1
3041.61
2266.99
21001.2
38774.2
49035
54901.8
58037
59473.1
78473.9
77288.2
74706.1
70348.2
67966.3
60371.9
56322.4
2669.58
2282.12
21511.3
38391.7
48977.6
54445.7
57750.7
59295.8
78634.3
77456
74958.3
70572.4
68237.8
60601.6
56397.4
2500.13
2416.16
24364.8
39992.4
48454.7
54111.2
57528.5
59139.7
78760.7
77586.7
75116.2
70762.2
68457.5
60752.7
56419.8
2331.49
2402.25
26645.2
39457.1
48178.6
53914.9
57389.4
59035.2
78827.9
77658.1
75193.5
70842.3
68533.9
60813.6
56368.5
2372.02
2414.66
26551.3
39435.3
48042.2
53853
57322.7
58974.4
75647.1
74065.7
70696.3
64713.2
54336.1
44247.5
19207.4
2298.22
2185.41
27966.8
40088.4
48301.4
53749.5
57019.9
58578.3
75546.4
73951
70545
64518.1
54068.1
44010.6
19058.5
2280.91
2197.08
27514.7
39998.7
48258.9
53722.1
57009.8
58570.7
75362.4
73744.9
70282.2
64191.1
53634.7
43537.2
19075.7
2286.82
2219.4
22332.9
39958.2
48270.8
53719.1
57009.6
58567.8
75124.3
73494.3
69900.4
63750.2
57743.4
43008.6
19768.9
2277.04
2236.54
22664.9
36286.1
48342.1
53739.8
57028.8
58577.4
74888.6
73220.8
69528.6
66038.4
57267.1
46365.5
25374.7
2278.42
2262.88
20132.9
35135.5
46115.1
53831
57118.4
58610.7
74694.4
72963.8
71072.6
65690.3
59192.5
47880.3
25471.4
2224.09
2255.19
22081.5
35806.4
46588.5
52460.8
57166.8
58689.4
74554.1
72790.8
70951.5
65414.1
59984.1
47687.1
25365.5
2258.01
2279.06
29070.8
38985
46320.5
52784.2
57237.3
58757.9
74518.3
72762
70901.6
66858.1
59904.8
47754.2
25473.8
2150.37
36943.7
46374.5
43173.4
47282.7
53177.1
57392.5
58881
74615.8
72875
70994.4
66965.8
60053.9
47987.5
25699.2
2294.61
2282.85
65948.5
52249.5
49299.1
53678.6
57571.3
59015.8
74800.7
73109.3
71222
65823.6
60371.4
48217.3
25802.4
2237.07
2205.75
46998.1
49233.8
49558.3
53875.4
57694.4
59114.1
75034.8
73404.6
69828.6
66333.4
59792
48615.5
26428.8
2189.49
2253.32
25280.1
40000.9
48379
54659.7
57713.5
59123.8
75285.4
73694.9
70203.3
64223.3
58186.2
43791.4
22173.4
2263.97
2280.02
21839.6
38164.7
49327.7
54512.7
57644.2
59133.7
75518.8
73937.1
70551.8
64589.7
54207.7
44071.5
20375.5
2312.35
10252.7
24470.4
41203.8
49209.1
54468.1
57647.3
59155.8
75693.2
74123.6
70773.9
64821.8
54445.7
44288
19445.8
2298.97
2409.32
28598.7
41036.1
49141.8
54462.1
57665.8
59183.2
75784.9
74224.2
70895.4
64957.2
54602
44460.8
19400.9
2280.71
2421.63
28701.3
41084.6
49122
54474.6
57674.1
59197.1
74890.4
73279.1
69830
63835.7
53661.3
41293
9351.97
2302.77
7831.32
35140
45773.4
52782.3
57308
59960.1
61221.3
74753.5
73119.1
69603.5
63502.8
53234.2
40460.2
7576.68
2287.8
7018.03
34833.4
45542.9
52629.6
57195.7
59885.4
61157.6
74506
72833.6
69219.6
62986.4
52844.7
39410.6
10117.1
2296.2
2218.19
26795.5
45389.1
52454.1
57018.2
59754.1
61042.8
74182.3
72480.2
68741.4
62415.8
54460
38257.9
10505.2
2286.87
2234.31
26761.3
40382.8
52192.6
56771.6
59565.8
60884
73849.4
72104.8
68291.6
63375
53490.6
39711.8
17701.1
2272.99
2247.9
22876.7
38190.3
48889
56523.7
59387.1
60701.1
73567.7
71769.6
68913.5
62783.2
54400.3
40254.2
17490.2
2839.48
2271.68
25103.3
37934.7
48678.2
54212.5
59157.5
60539.9
73353.5
71506.2
68655.3
62341.5
54671.9
39789.1
17252
4165.56
2291.69
38329.7
38375.4
46695.9
53921.8
58948.8
60393
73298.8
71446.3
68572.7
63337.3
54543
40179.6
18642.2
3598.23
2277.97
2915.38
25246.9
44866.6
53743.3
58888
60370.2
73414.5
71594.3
68702.9
63475.9
54853.7
41148.5
21223.5
2113.08
2263.82
2324.63
36281.2
46479.8
54048.2
59009.5
60462.1
73662.6
71914.8
69008.9
62969.9
55357.8
41079.8
18617.2
2252.91
8838.29
39994.2
45764.2
48574.8
54500.2
59253.6
60647.2
73985.2
72294.4
68646.1
63677.5
55391.2
41654.8
19242.9
2241.6
2303.2
27244.3
40401.2
49409.9
56669.2
59531
60848.1
74327.3
72683
69090.4
63044.2
54982.9
39577.1
18501.8
2301.6
2323.18
24738.2
41168.2
52532.5
57031.5
59770.6
61080.1
74640.9
73016.3
69514.9
63481.9
53697.9
40198.4
13118.8
2309.65
7630.35
28424.1
46232
52965.1
57379.9
60038.5
61298.1
74872.8
73272.3
69831.6
63841.7
53613.3
41131.9
7587.7
2276.67
11324.2
36428.9
46518.8
53218.1
57621.7
60226.3
61461.9
74997.3
73412.4
70016.9
64085.6
53872.5
41667.5
7189.92
2264.81
10105.8
36412.6
46696
53365.6
57754.1
60322
61546.4
76642.4
75483.5
73055.4
69165.1
61537.9
52338.6
27311
2247.85
37892.4
52359.8
56284.7
60562.7
63240.9
64825.5
65611
76471.5
75274.4
72741.7
68606.7
60520
50665.9
17411.6
2260.13
37122.6
51770
55820.7
60268
63034.8
64687.5
65495.1
76165.1
74907.4
72223.5
67717.9
60940.8
47245.6
18259.5
6064.56
19811.9
40603.1
55540
59780
62673.5
64435.5
65278
75763.5
74430
71532.7
66749.2
59223.4
44982
18880.2
2297.68
8574.21
37981.8
49204.1
59123.4
62132.3
64055.3
64967.5
75336.4
73909.6
70837.5
65915.9
57197.5
43375.6
19723.6
2249.95
5763.16
30602
45604.9
54857.7
61572.8
63625.1
64595.2
74956.9
73457.7
70346.6
64653.6
56137.3
41796.2
18538
2448.91
6660.45
29152.8
43408.2
54022.4
58492.9
63161.2
64218.8
74669.6
73085.1
69759
63759.1
55178.7
39827.9
17266.2
2281.84
3662.23
28522.8
42971.1
51544.5
57773.9
62703.1
63870.3
74576.9
72966
69541
63893.9
54439
38773.5
9071.04
2222.21
2333.38
6986.88
28072.7
48781.1
57142.7
62403.4
63687.1
74698.7
73135.6
69694
64066.6
54858.2
40806.7
41344.5
2524.35
2291.26
2296.62
31372
47723.7
56889.5
62393.9
63706.9
75004.6
73550.5
70168.2
64604.8
56078.9
41919.3
19839
2316.59
5530.21
3022.01
34183.4
49185.9
57256.9
62717.9
63954.6
75411.2
74037.3
71124.3
65796.2
57616.4
44203.4
20755.1
2291.59
2553.7
25313.6
40161.8
52865.6
60831.8
63231.5
64343.2
75839.5
74567.7
71840.1
67396
59451
46752.6
22237.3
2240.04
6769.18
32298.2
47925.6
58504.9
61741.8
63803.3
64789.6
76227.3
75021.4
72469.4
68231.7
62038.3
48266.2
20244.6
2824.45
16257.4
40121.6
55612.6
59684.9
62559
64332.7
65190.6
76515.8
75356.7
72908.7
68935.1
60892.9
51710.4
17397.1
2368.91
37126.3
52469.2
56180.4
60398.9
63078.3
64681.7
65476.8
76673.6
75543.5
73173.3
69378.6
61582.4
52697.2
22602.2
2389.39
37946
53031.8
56690.9
60768.9
63346.7
64865.4
65627
80398.9
80023.7
79351.8
79375.6
79462.5
86519.3
125203
122902
92650
76256.3
71127.5
70890
70785.3
70978.1
71160.7
80208.7
79778.7
78981.7
78670.2
78075.4
85175.5
123310
108172
89385.8
75069.7
70424.3
70466.5
70510.5
70796.8
71010.8
79866.6
79346
78361.2
77035
76515.7
70605
77309.9
64896.7
63822.5
64697.5
69209.4
69493.5
70008.8
70459.3
70726.7
79413.1
78774.4
77461.3
75654.8
70743.6
64753.7
52072.2
13322.8
33746.9
60450.1
63329.9
68339.2
69217.2
69948.1
70314
78918.9
78132.6
76548.6
72651.1
67950.9
58544.3
36426
2270.47
21859.1
49050.3
58242.8
63710
68394.2
69331
69819.7
78464.9
77562
74719.3
70934.2
64488.2
53400.6
30511.7
2552.78
24042
41973.2
53546.6
62017.9
64780.6
68697.9
69306.1
78112.2
77099.9
73900.7
69558.9
61800.9
48064.1
24580.5
2327.39
2116.77
22671.6
54421.6
59255.7
63738.3
68079.8
68826.6
77974.2
76914.6
73540.1
68639.6
59853
41948.7
2346.42
2299.75
8036.15
27590
77242.9
57827.1
62771.1
67634.8
68526.7
78081.4
77068.9
73670.1
68779.6
60106.3
42306.2
2280.33
2234.38
2308.93
2211.57
46286
54068.7
62186
67542.7
68484.1
78411.3
77520.3
74253.8
70403
62518.9
50032.3
28400.3
2344.31
2400.45
12870.9
39129.2
54606.5
62671.1
67904
68746
78864.9
78098.7
76572.6
71982.3
66032.6
56763.5
40603.9
2296.27
18288.2
36007.1
48073.9
60160.6
67089.3
68538.1
69246.1
79350.5
78746.4
77543.2
75937.6
70431.7
66345.8
51387
2310.37
27631.1
51340.2
60105
67048.5
68322.8
69318.2
69812.3
79792.8
79309.8
78433.2
77346
77461.9
69879
73549
74752.3
68905
63559.8
68583.7
68855.6
69456.8
70007.6
70331.2
80123.3
79726.5
79004.7
78925.5
78521.8
86671.2
127477
108789
90910.5
75513.1
70173.7
70141.6
70165.1
70458.3
70690.4
80304.4
79957.4
79339.5
79560.8
79555.4
87717.1
129177
115876
93612
76736.2
71051.4
70712.8
70536
70702.2
70883.6
85040.2
85419
86221.4
89040.5
94278.7
99264
124641
130918
106751
91936.7
84465
80704.5
78381.3
77430.6
77064.7
84870.7
85199
85942.6
88648.5
93580.1
99268.9
126811
132539
108549
91525.8
83997.4
80349.4
78133.6
77253.7
76916.6
84553.3
84766.1
85430
87017
91522.1
94862.4
115750
143147
111571
90216.3
82408.4
79289.7
77630.9
76897.9
76629.3
84121.5
84216.2
84554.4
85622.1
85794.2
92368.9
114613
148363
110053
87281.9
79213.9
77836.4
76786.1
76363.1
76195.2
83640
83581.1
83582.1
81910.2
82733.4
83891.9
94501.6
170596
100400
79343.8
74441.5
74124.1
75815.6
75697.6
75682.5
83186.9
82942.7
81128
80165.5
77871.7
75907
78316.3
128361
85572.3
68046.9
67482.3
71537.8
72467.5
74965.8
75139.5
82830
82486
80279.9
78744.6
73934.7
67885.8
53897.4
2542.49
29197.4
36559.1
55469.9
66373.2
70942.1
74322.3
74635
82663.9
82276.7
79834.7
76754.4
71609.2
60160.8
24156
2886.09
49093.6
2272.32
39743.8
61838.8
69769.1
73881.3
74307.7
82723.6
82357.2
79876.9
76769.9
71575
59964
21721.3
2926.48
86.67
2087.7
27276.3
59367.9
69360.9
73802.5
74247.2
82996
82722.4
80383.8
79060.7
73935.4
68477.4
58777.3
3132.08
2252.9
32087.1
49077
63582.3
70080.3
74142.7
74494.8
83403.8
83304
83194.5
80541
78237.6
76928.7
83012.5
93508.6
64025.1
59851.3
62731.6
70123.1
74445.8
74767.3
74943.6
83863.1
83933.6
84226.1
85220.2
84070.6
89178.6
99413.2
113392
97913.3
77665.9
74669.5
76312
75677
75526.1
75487.6
84291.8
84503.5
85180.4
86799.3
91396.7
94335
115611
141763
111245
88613.9
81236.6
78289.8
76785.7
76190.5
75992.8
84609.3
84951.2
85703.8
88574.4
93692.1
99749.3
129438
140261
110578
91398.4
83392.3
79710.7
77484.6
76655.8
76354.2
84778.9
85177.9
85990.2
89032.7
94416.9
99568.7
128021
135154
110039
91991.4
84104.1
80235
77839
76896.9
76545.8
89293.4
89978.2
91155.3
93369.6
98282.2
97611.9
101728
105478
99053.2
95266.6
90792.1
87075.9
84443.1
83105.2
82465.3
89200.3
89873
91094.2
93588.5
98530.1
98648.1
104017
109078
101916
95712.2
91031.2
87050
84342.3
82998.5
82364
89005.4
89599.2
90972.8
93331.7
97752.8
100502
106803
118488
105616
97170.4
90518.5
86636.9
84082.4
82747
82153.6
88709.4
89250.4
90506.4
93109.1
94946.1
102172
113824
128393
113496
97868
89923
85893.2
83540.1
82350.7
81823.5
88344.3
88778.5
89815.8
90359.1
93960
99945.5
114842
140289
118603
98271.4
88154.1
83885.5
82759
81811.5
81405.4
87976.2
88231.1
87831.2
89078.7
90811.1
96315.6
113221
150052
118765
94821.7
84666
82166.3
80659.5
81186.4
80946.3
87693
87877.3
87249.1
88041.5
88152.4
92064.4
103547
148211
112469
84006.9
77652.8
78679.1
79608.8
80702.9
80545
87535.2
87689.1
86854.6
86376.1
86383.5
87765.3
89529.7
83177.2
122908
54025.7
66055
74855.9
78753.6
80372.3
80280.3
87518.6
87674.1
86772.3
86191.2
86007
86836.6
85979.2
72201
73178.8
47701.3
67797.1
74196.8
78488.3
80285.7
80198.2
87652.5
87853.2
86991.2
87642.9
87061
89812.5
97906.1
129567
102399
76765
74644.3
77091.1
78852.1
80471.1
80330.8
87919.6
88248.5
89028.2
88614.5
89486
92931.3
101972
107105
100103
86460.7
80437.6
80610.7
81498.1
80884.9
80628.8
88241.3
88692.6
89719.1
91830.1
92605.9
97901.5
104998
114047
105010
92239.8
86017.6
84176
82332.3
81424.9
81017.5
88539.2
89079.3
90329.4
92427.8
96357.2
98992.5
105451
115571
103288
94675.7
88856.8
85369.4
83061.7
81897.8
81383.4
88743.7
89395
90532.3
92960
97873.8
97668.7
103360
110606
101214
94780.5
90099.2
86143.7
83483.5
82231.3
81641.5
88845.6
89526.9
90644.1
92875.4
97912.1
96708.5
101432
107389
99933.6
94533.8
90154.6
86335.5
83678.8
82389.3
81775.1
92481
93054.4
94044.9
94745.1
97938.8
97244.8
97518
99355.7
96098.6
95480.7
92873.5
90505.6
88615.6
87465.5
86840
92482.6
93088
94126.8
95247.9
98581
98209.3
99325.5
101078
98335.1
96279.9
93569.6
90752.7
88685.7
87464.6
86815.5
92462.8
93055.5
94317.6
95997.5
99062.9
100715
104328
109483
103702
98409.2
94190.8
91070.7
88761.6
87409.7
86747.6
92381.7
93028.4