/*--------------------------------*- C++ -*----------------------------------*\
| =========                 |                                                 |
| \\      /  F ield         | OpenFOAM: The Open Source CFD Toolbox           |
|  \\    /   O peration     | Version:  v2012                                 |
|   \\  /    A nd           | Website:  www.openfoam.com                      |
|    \\/     M anipulation  |                                                 |
\*---------------------------------------------------------------------------*/
FoamFile
{
    version     2.0;
    format      ascii;
    class       surfaceScalarField;
    location    "0";
    object      phi;
}
// * * * * * * * * * * * * * * * * * * * * * * * * * * * * * * * * * * * * * //

dimensions      [0 3 -1 0 0 0 0];
oriented        oriented;


internalField   nonuniform List<scalar> 
32025
(
6.07153e-17
6.71862e-15
8e-05
-9.93957e-16
6.68657e-15
8e-05
-1.96284e-15
6.6995e-15
8e-05
-2.50581e-15
6.77331e-15
8e-05
-2.64802e-15
6.90077e-15
8e-05
-2.53534e-15
7.07156e-15
8e-05
-2.33407e-15
7.27196e-15
8e-05
-2.18141e-15
7.4862e-15
8e-05
-2.15015e-15
7.6961e-15
8e-05
-2.25345e-15
7.88428e-15
8e-05
-2.42081e-15
8.03958e-15
8e-05
-2.51973e-15
8.14196e-15
8e-05
-2.56219e-15
8.16625e-15
8e-05
-2.91264e-15
8.09422e-15
8e-05
7.95982e-15
8e-05
2.86628e-17
1.20571e-14
8e-05
-9.81026e-16
1.20979e-14
8e-05
-1.8899e-15
1.22125e-14
8e-05
-2.37835e-15
1.24162e-14
8e-05
-2.47549e-15
1.27059e-14
8e-05
-2.33494e-15
1.30642e-14
8e-05
-2.1207e-15
1.34667e-14
8e-05
-1.97151e-15
1.38908e-14
8e-05
-1.96197e-15
1.43132e-14
8e-05
-2.09728e-15
1.47043e-14
8e-05
-2.31842e-15
1.50392e-14
8e-05
-2.49544e-15
1.52967e-14
8e-05
-2.63422e-15
1.54511e-14
8e-05
-3.04617e-15
1.54928e-14
8e-05
1.54208e-14
8e-05
7.11636e-17
1.67949e-14
8e-05
-8.65547e-16
1.69163e-14
8e-05
-1.6871e-15
1.71556e-14
8e-05
-2.0877e-15
1.75139e-14
8e-05
-2.11814e-15
1.79813e-14
8e-05
-1.93157e-15
1.85373e-14
8e-05
-1.69656e-15
1.91505e-14
8e-05
-1.54911e-15
1.97932e-14
8e-05
-1.56996e-15
2.04281e-14
8e-05
-1.76331e-15
2.10275e-14
8e-05
-2.06176e-15
2.15593e-14
8e-05
-2.34014e-15
2.1992e-14
8e-05
-2.59341e-15
2.23025e-14
8e-05
-3.11821e-15
2.24656e-14
8e-05
2.24526e-14
8e-05
1.92554e-16
2.10751e-14
8e-05
-6.27103e-16
2.12746e-14
8e-05
-1.32789e-15
2.16424e-14
8e-05
-1.61944e-15
2.21636e-14
8e-05
-1.56212e-15
2.2816e-14
8e-05
-1.31839e-15
2.35757e-14
8e-05
-1.05384e-15
2.44042e-14
8e-05
-9.14239e-16
2.52629e-14
8e-05
-9.70538e-16
2.61138e-14
8e-05
-1.23331e-15
2.69194e-14
8e-05
-1.62812e-15
2.76489e-14
8e-05
-2.02967e-15
2.82629e-14
8e-05
-2.43031e-15
2.87227e-14
8e-05
-3.13208e-15
2.89915e-14
8e-05
2.90099e-14
8e-05
3.92955e-16
2.48533e-14
8e-05
-2.60169e-16
2.5137e-14
8e-05
-8.06726e-16
2.56314e-14
8e-05
-9.67068e-16
2.63115e-14
8e-05
-8.04084e-16
2.7151e-14
8e-05
-4.89072e-16
2.81069e-14
8e-05
-1.96891e-16
2.91389e-14
8e-05
-6.33174e-17
3.02022e-14
8e-05
-1.64051e-16
3.12561e-14
8e-05
-5.0295e-16
3.22641e-14
8e-05
-1.01493e-15
3.31782e-14
8e-05
-1.56819e-15
3.39582e-14
8e-05
-2.16147e-15
3.45496e-14
8e-05
-3.11288e-15
3.48983e-14
8e-05
3.4919e-14
8e-05
6.76582e-16
2.79976e-14
8e-05
2.35095e-16
2.83559e-14
8e-05
-1.26595e-16
2.89734e-14
8e-05
-1.27582e-16
2.98042e-14
8e-05
1.51788e-16
3.08096e-14
8e-05
5.42061e-16
3.19441e-14
8e-05
8.67362e-16
3.31558e-14
8e-05
9.91394e-16
3.44014e-14
8e-05
8.43983e-16
3.56356e-14
8e-05
4.1109e-16
3.68126e-14
8e-05
-2.34935e-16
3.78908e-14
8e-05
-9.77636e-16
3.881e-14
8e-05
-1.81188e-15
3.95127e-14
8e-05
-3.09301e-15
3.9916e-14
8e-05
3.9903e-14
8e-05
1.03397e-15
3.02787e-14
8e-05
8.52617e-16
3.07045e-14
8e-05
7.05085e-16
3.14271e-14
8e-05
8.7785e-16
3.2383e-14
8e-05
1.28709e-15
3.35261e-14
8e-05
1.75385e-15
3.47994e-14
8e-05
2.11203e-15
3.61525e-14
8e-05
2.22565e-15
3.75368e-14
8e-05
2.02005e-15
3.89098e-14
8e-05
1.4893e-15
4.02213e-14
8e-05
6.84309e-16
4.14217e-14
8e-05
-2.74914e-16
4.24444e-14
8e-05
-1.4095e-15
4.32163e-14
8e-05
-3.10598e-15
4.36404e-14
8e-05
4.35581e-14
8e-05
1.45886e-15
3.13864e-14
8e-05
1.57525e-15
3.18601e-14
8e-05
1.66092e-15
3.26475e-14
8e-05
2.02103e-15
3.36849e-14
8e-05
2.5595e-15
3.49121e-14
8e-05
3.10693e-15
3.62722e-14
8e-05
3.49634e-15
3.77103e-14
8e-05
3.59868e-15
3.91779e-14
8e-05
3.33236e-15
4.06272e-14
8e-05
2.68973e-15
4.20167e-14
8e-05
1.70697e-15
4.32874e-14
8e-05
4.97866e-16
4.43708e-14
8e-05
-9.85363e-16
4.51765e-14
8e-05
-3.18834e-15
4.55842e-14
8e-05
4.54055e-14
8e-05
1.93256e-15
3.09882e-14
8e-05
2.36352e-15
3.14704e-14
8e-05
2.69753e-15
3.22754e-14
8e-05
3.2491e-15
3.33335e-14
8e-05
3.91866e-15
3.45782e-14
8e-05
4.54592e-15
3.59497e-14
8e-05
4.96391e-15
3.73945e-14
8e-05
5.04805e-15
3.88647e-14
8e-05
4.72184e-15
4.0321e-14
8e-05
3.95959e-15
4.17194e-14
8e-05
2.7903e-15
4.29986e-14
8e-05
1.30278e-15
4.40862e-14
8e-05
-5.77703e-16
4.48781e-14
8e-05
-3.36706e-15
4.52399e-14
8e-05
4.49553e-14
8e-05
2.41477e-15
2.88017e-14
8e-05
3.16851e-15
2.92396e-14
8e-05
3.75564e-15
2.99943e-14
8e-05
4.49471e-15
3.09926e-14
8e-05
5.28921e-15
3.21722e-14
8e-05
5.98992e-15
3.34714e-14
8e-05
6.43409e-15
3.48342e-14
8e-05
6.50435e-15
3.62245e-14
8e-05
6.12018e-15
3.7601e-14
8e-05
5.23879e-15
3.89254e-14
8e-05
3.87797e-15
4.01407e-14
8e-05
2.09637e-15
4.11668e-14
8e-05
-2.16801e-16
4.19006e-14
8e-05
-3.65246e-15
4.21911e-14
8e-05
4.18165e-14
8e-05
2.85271e-15
2.47381e-14
8e-05
3.92233e-15
2.50729e-14
8e-05
4.7548e-15
2.56956e-14
8e-05
5.67349e-15
2.65561e-14
8e-05
6.58927e-15
2.7582e-14
8e-05
7.35267e-15
2.87123e-14
8e-05
7.82447e-15
2.99048e-14
8e-05
7.88085e-15
3.11148e-14
8e-05
7.44366e-15
3.23205e-14
8e-05
6.45408e-15
3.34776e-14
8e-05
4.90493e-15
3.45461e-14
8e-05
2.82933e-15
3.54396e-14
8e-05
7.45532e-17
3.60666e-14
8e-05
-4.02708e-15
3.62697e-14
8e-05
3.58437e-14
8e-05
3.18755e-15
1.89882e-14
8e-05
4.54494e-15
1.91383e-14
8e-05
5.61534e-15
1.95529e-14
8e-05
6.70029e-15
2.01921e-14
8e-05
7.72039e-15
2.09841e-14
8e-05
8.54521e-15
2.18688e-14
8e-05
9.03448e-15
2.27978e-14
8e-05
9.08648e-15
2.37475e-14
8e-05
8.60076e-15
2.46843e-14
8e-05
7.52263e-15
2.55949e-14
8e-05
5.79839e-15
2.64242e-14
8e-05
3.45636e-15
2.71171e-14
8e-05
2.76768e-16
2.75751e-14
8e-05
-4.45308e-15
2.76731e-14
8e-05
2.7216e-14
8e-05
3.33674e-15
1.16669e-14
8e-05
4.96044e-15
1.15584e-14
8e-05
6.25455e-15
1.17154e-14
8e-05
7.49231e-15
1.20876e-14
8e-05
8.60502e-15
1.25888e-14
8e-05
9.47427e-15
1.31527e-14
8e-05
9.9842e-15
1.37485e-14
8e-05
1.00232e-14
1.43487e-14
8e-05
9.51141e-15
1.49437e-14
8e-05
8.35191e-15
1.55076e-14
8e-05
6.49216e-15
1.60149e-14
8e-05
3.91436e-15
1.64122e-14
8e-05
3.747e-16
1.66369e-14
8e-05
-4.91009e-15
1.65423e-14
8e-05
1.56463e-14
8e-05
3.22915e-15
2.31235e-15
8e-05
5.11657e-15
2.05829e-15
8e-05
6.62586e-15
1.99584e-15
8e-05
7.99353e-15
2.09294e-15
8e-05
9.16892e-15
2.25956e-15
8e-05
1.007e-14
2.45381e-15
8e-05
1.05835e-14
2.6412e-15
8e-05
1.06174e-14
2.81727e-15
8e-05
1.00753e-14
2.97166e-15
8e-05
8.86006e-15
3.09652e-15
8e-05
6.88863e-15
3.16768e-15
8e-05
4.13901e-15
3.17202e-15
8e-05
2.80158e-16
3.04878e-15
8e-05
-5.80612e-15
2.33841e-15
8e-05
1.54047e-15
8e-05
2.97509e-15
8e-05
5.05325e-15
8e-05
6.72296e-15
8e-05
8.16014e-15
8e-05
9.36317e-15
8e-05
1.02583e-14
8e-05
1.07596e-14
8e-05
1.07726e-14
8e-05
1.01984e-14
8e-05
8.93209e-15
8e-05
6.89296e-15
8e-05
4.0149e-15
8e-05
-4.30211e-16
8e-05
-6.60405e-15
8e-05
8e-05
-1.05898e-16
6.61616e-15
8e-05
-1.19428e-15
6.58328e-15
8e-05
-2.16588e-15
6.59976e-15
8e-05
-2.70877e-15
6.67522e-15
8e-05
-2.84928e-15
6.80713e-15
8e-05
-2.73574e-15
6.97879e-15
8e-05
-2.5353e-15
7.18183e-15
8e-05
-2.38004e-15
7.39868e-15
8e-05
-2.35126e-15
7.61118e-15
8e-05
-2.45211e-15
7.80271e-15
8e-05
-2.61588e-15
7.95978e-15
8e-05
-2.71571e-15
8.06733e-15
8e-05
-2.76862e-15
8.10368e-15
8e-05
-3.09049e-15
8.05085e-15
8e-05
7.93809e-15
8e-05
-1.37911e-16
1.1934e-14
8e-05
-1.17866e-15
1.19757e-14
8e-05
-2.09042e-15
1.20936e-14
8e-05
-2.57685e-15
1.23019e-14
8e-05
-2.67589e-15
1.25983e-14
8e-05
-2.53443e-15
1.29645e-14
8e-05
-2.31846e-15
1.33783e-14
8e-05
-2.16754e-15
1.38111e-14
8e-05
-2.15886e-15
1.42404e-14
8e-05
-2.29504e-15
1.4642e-14
8e-05
-2.50833e-15
1.49872e-14
8e-05
-2.67849e-15
1.52569e-14
8e-05
-2.82232e-15
1.54261e-14
8e-05
-3.20238e-15
1.54832e-14
8e-05
1.54235e-14
8e-05
-9.54098e-17
1.66707e-14
8e-05
-1.06157e-15
1.67905e-14
8e-05
-1.88304e-15
1.70332e-14
8e-05
-2.27951e-15
1.74017e-14
8e-05
-2.31065e-15
1.78798e-14
8e-05
-2.12062e-15
1.84513e-14
8e-05
-1.88564e-15
1.9081e-14
8e-05
-1.73906e-15
1.97376e-14
8e-05
-1.75727e-15
2.03899e-14
8e-05
-1.94983e-15
2.10039e-14
8e-05
-2.23866e-15
2.15556e-14
8e-05
-2.50928e-15
2.20076e-14
8e-05
-2.76523e-15
2.23328e-14
8e-05
-3.26294e-15
2.2509e-14
8e-05
2.2502e-14
8e-05
2.43659e-17
2.09615e-14
8e-05
-8.17922e-16
2.11611e-14
8e-05
-1.51544e-15
2.1534e-14
8e-05
-1.80143e-15
2.20684e-14
8e-05
-1.73827e-15
2.27405e-14
8e-05
-1.49092e-15
2.35177e-14
8e-05
-1.22818e-15
2.43669e-14
8e-05
-1.08594e-15
2.5249e-14
8e-05
-1.14413e-15
2.61233e-14
8e-05
-1.39811e-15
2.6956e-14
8e-05
-1.78755e-15
2.7708e-14
8e-05
-2.1841e-15
2.83436e-14
8e-05
-2.58899e-15
2.88242e-14
8e-05
-3.26995e-15
2.91042e-14
8e-05
2.91233e-14
8e-05
2.23939e-16
2.47763e-14
8e-05
-4.45036e-16
2.50571e-14
8e-05
-9.81066e-16
2.55594e-14
8e-05
-1.1293e-15
2.62594e-14
8e-05
-9.61037e-16
2.7119e-14
8e-05
-6.42635e-16
2.81017e-14
8e-05
-3.46077e-16
2.91598e-14
8e-05
-2.11636e-16
3.02535e-14
8e-05
-3.11383e-16
3.13394e-14
8e-05
-6.46184e-16
3.23768e-14
8e-05
-1.15272e-15
3.33205e-14
8e-05
-1.70263e-15
3.41254e-14
8e-05
-2.30994e-15
3.47404e-14
8e-05
-3.25079e-15
3.50979e-14
8e-05
3.51091e-14
8e-05
5.03857e-16
2.79715e-14
8e-05
5.8193e-17
2.83308e-14
8e-05
-2.81105e-16
2.89604e-14
8e-05
-2.6967e-16
2.9813e-14
8e-05
2.07369e-17
3.08468e-14
8e-05
4.16334e-16
3.20108e-14
8e-05
7.46798e-16
3.32573e-14
8e-05
8.75168e-16
3.45366e-14
8e-05
7.25114e-16
3.58056e-14
8e-05
2.97505e-16
3.70198e-14
8e-05
-3.46945e-16
3.81292e-14
8e-05
-1.08767e-15
3.90791e-14
8e-05
-1.95156e-15
3.9799e-14
8e-05
-3.24046e-15
4.02067e-14
8e-05
4.01737e-14
8e-05
8.64919e-16
3.03212e-14
8e-05
6.88685e-16
3.07495e-14
8e-05
5.70644e-16
3.14869e-14
8e-05
7.64066e-16
3.24687e-14
8e-05
1.18474e-15
3.36432e-14
8e-05
1.66368e-15
3.49504e-14
8e-05
2.02616e-15
3.63415e-14
8e-05
2.14412e-15
3.77657e-14
8e-05
1.93934e-15
3.9176e-14
8e-05
1.40694e-15
4.0525e-14
8e-05
6.02109e-16
4.17599e-14
8e-05
-3.67841e-16
4.28138e-14
8e-05
-1.54382e-15
4.36049e-14
8e-05
-3.27264e-15
4.40227e-14
8e-05
4.39084e-14
8e-05
1.29237e-15
3.14887e-14
8e-05
1.42602e-15
3.19676e-14
8e-05
1.55163e-15
3.27759e-14
8e-05
1.93855e-15
3.3841e-14
8e-05
2.49193e-15
3.51021e-14
8e-05
3.0539e-15
3.6502e-14
8e-05
3.45036e-15
3.79801e-14
8e-05
3.55445e-15
3.94859e-14
8e-05
3.28825e-15
4.0976e-14
8e-05
2.6419e-15
4.24044e-14
8e-05
1.65682e-15
4.37134e-14
8e-05
4.22405e-16
4.48236e-14
8e-05
-1.12686e-15
4.56431e-14
8e-05
-3.38697e-15
4.60388e-14
8e-05
4.58149e-14
8e-05
1.77131e-15
3.11332e-14
8e-05
2.23338e-15
3.16204e-14
8e-05
2.61762e-15
3.24472e-14
8e-05
3.20056e-15
3.35348e-14
8e-05
3.89177e-15
3.4815e-14
8e-05
4.53204e-15
3.62254e-14
8e-05
4.9561e-15
3.77078e-14
8e-05
5.04458e-15
3.92204e-14
8e-05
4.71758e-15
4.07158e-14
8e-05
3.95083e-15
4.21538e-14
8e-05
2.76704e-15
4.34696e-14
8e-05
1.24277e-15
4.45823e-14
8e-05
-7.31186e-16
4.5383e-14
8e-05
-3.61083e-15
4.57222e-14
8e-05
4.5383e-14
8e-05
2.2594e-15
2.89473e-14
8e-05
3.06021e-15
2.93975e-14
8e-05
3.70521e-15
3.01711e-14
8e-05
4.47992e-15
3.11999e-14
8e-05
5.30218e-15
3.24142e-14
8e-05
6.01523e-15
3.37464e-14
8e-05
6.46878e-15
3.51462e-14
8e-05
6.53991e-15
3.65721e-14
8e-05
6.15472e-15
3.79877e-14
8e-05
5.2667e-15
3.93461e-14
8e-05
3.87884e-15
4.05932e-14
8e-05
2.0435e-15
4.16429e-14
8e-05
-3.92048e-16
4.23802e-14
8e-05
-3.94997e-15
4.26419e-14
8e-05
4.22127e-14
8e-05
2.70877e-15
2.4836e-14
8e-05
3.83469e-15
2.51849e-14
8e-05
4.73485e-15
2.58292e-14
8e-05
5.69423e-15
2.6714e-14
8e-05
6.63445e-15
2.77687e-14
8e-05
7.41586e-15
2.89326e-14
8e-05
7.89386e-15
3.0154e-14
8e-05
7.95631e-15
3.1396e-14
8e-05
7.51317e-15
3.26294e-14
8e-05
6.51381e-15
3.38184e-14
8e-05
4.92851e-15
3.4908e-14
8e-05
2.78163e-15
3.58229e-14
8e-05
-1.30264e-16
3.64473e-14
8e-05
-4.37923e-15
3.66237e-14
8e-05
3.61343e-14
8e-05
3.05856e-15
1.89728e-14
8e-05
4.47898e-15
1.91425e-14
8e-05
5.61885e-15
1.95798e-14
8e-05
6.74886e-15
2.02397e-14
8e-05
7.79837e-15
2.10543e-14
8e-05
8.63727e-15
2.19581e-14
8e-05
9.13671e-15
2.29077e-14
8e-05
9.18804e-15
2.38767e-14
8e-05
8.7039e-15
2.48367e-14
8e-05
7.60337e-15
2.57632e-14
8e-05
5.84255e-15
2.6614e-14
8e-05
3.40605e-15
2.73124e-14
8e-05
4.61298e-17
2.77669e-14
8e-05
-4.86866e-15
2.78065e-14
8e-05
2.72829e-14
8e-05
3.22745e-15
1.14457e-14
8e-05
4.91715e-15
1.13824e-14
8e-05
6.27875e-15
1.15654e-14
8e-05
7.56253e-15
1.1954e-14
8e-05
8.70224e-15
1.24623e-14
8e-05
9.58687e-15
1.30356e-14
8e-05
1.01048e-14
1.36402e-14
8e-05
1.01499e-14
1.425e-14
8e-05
9.62866e-15
1.48467e-14
8e-05
8.4541e-15
1.54156e-14
8e-05
6.54093e-15
1.59231e-14
8e-05
3.86149e-15
1.63194e-14
8e-05
8.57092e-17
1.64971e-14
8e-05
-5.3931e-15
1.63239e-14
8e-05
1.55397e-14
8e-05
3.16414e-15
1.9585e-15
8e-05
5.10017e-15
1.74434e-15
8e-05
6.66646e-15
1.70523e-15
8e-05
8.07175e-15
1.80593e-15
8e-05
9.27549e-15
1.97238e-15
8e-05
1.01915e-14
2.1606e-15
8e-05
1.07145e-14
2.34361e-15
8e-05
1.07466e-14
2.51101e-15
8e-05
1.01976e-14
2.65673e-15
8e-05
8.96071e-15
2.76775e-15
8e-05
6.93811e-15
2.8276e-15
8e-05
4.03836e-15
2.79976e-15
8e-05
-8.75237e-17
2.62905e-15
8e-05
-6.17735e-15
2.03743e-15
8e-05
1.39385e-15
8e-05
2.94911e-15
8e-05
5.06106e-15
8e-05
6.76716e-15
8e-05
8.23733e-15
8e-05
9.46457e-15
8e-05
1.03736e-14
8e-05
1.08819e-14
8e-05
1.08932e-14
8e-05
1.03095e-14
8e-05
9.01969e-15
8e-05
6.91114e-15
8e-05
3.86765e-15
8e-05
-6.79144e-16
8e-05
-6.82093e-15
8e-05
8e-05
-2.79998e-16
6.4784e-15
8e-05
-1.45717e-15
6.44797e-15
8e-05
-2.48507e-15
6.46445e-15
8e-05
-3.06257e-15
6.54346e-15
8e-05
-3.22667e-15
6.67869e-15
8e-05
-3.12416e-15
6.85736e-15
8e-05
-2.92648e-15
7.06624e-15
8e-05
-2.76688e-15
7.28741e-15
8e-05
-2.72612e-15
7.50512e-15
8e-05
-2.80166e-15
7.70469e-15
8e-05
-2.92727e-15
7.86863e-15
8e-05
-2.97158e-15
7.98675e-15
8e-05
-2.94911e-15
8.03524e-15
8e-05
-3.14592e-15
8.00409e-15
8e-05
7.91562e-15
8e-05
-3.10436e-16
1.17277e-14
8e-05
-1.44069e-15
1.17666e-14
8e-05
-2.40519e-15
1.18889e-14
8e-05
-2.92821e-15
1.21048e-14
8e-05
-3.04712e-15
1.24163e-14
8e-05
-2.91615e-15
1.27953e-14
8e-05
-2.7053e-15
1.3224e-14
8e-05
-2.54918e-15
1.36759e-14
8e-05
-2.52654e-15
1.41217e-14
8e-05
-2.63686e-15
1.45405e-14
8e-05
-2.81001e-15
1.49058e-14
8e-05
-2.92222e-15
1.51953e-14
8e-05
-2.98025e-15
1.5387e-14
8e-05
-3.23439e-15
1.54677e-14
8e-05
1.54304e-14
8e-05
-2.71484e-16
1.64225e-14
8e-05
-1.31839e-15
1.65449e-14
8e-05
-2.1893e-15
1.67947e-14
8e-05
-2.61762e-15
1.7179e-14
8e-05
-2.66808e-15
1.76794e-14
8e-05
-2.48751e-15
1.82753e-14
8e-05
-2.25254e-15
1.89336e-14
8e-05
-2.10248e-15
1.96196e-14
8e-05
-2.10777e-15
2.03014e-14
8e-05
-2.27241e-15
2.09477e-14
8e-05
-2.51961e-15
2.15278e-14
8e-05
-2.73053e-15
2.20092e-14
8e-05
-2.90046e-15
2.2364e-14
8e-05
-3.27169e-15
2.25653e-14
8e-05
2.25775e-14
8e-05
-1.49974e-16
2.07126e-14
8e-05
-1.06859e-15
2.09155e-14
8e-05
-1.80498e-15
2.13015e-14
8e-05
-2.11818e-15
2.18566e-14
8e-05
-2.07126e-15
2.25593e-14
8e-05
-1.83013e-15
2.33719e-14
8e-05
-1.56646e-15
2.42602e-14
8e-05
-1.42074e-15
2.51813e-14
8e-05
-1.4615e-15
2.6099e-14
8e-05
-1.69309e-15
2.69715e-14
8e-05
-2.03822e-15
2.77652e-14
8e-05
-2.37492e-15
2.84372e-14
8e-05
-2.69915e-15
2.89491e-14
8e-05
-3.25773e-15
2.92561e-14
8e-05
2.92924e-14
8e-05
5.29091e-17
2.45628e-14
8e-05
-6.81667e-16
2.48482e-14
8e-05
-1.249e-15
2.53695e-14
8e-05
-1.41553e-15
2.60989e-14
8e-05
-1.25775e-15
2.69956e-14
8e-05
-9.41875e-16
2.80219e-14
8e-05
-6.47052e-16
2.91294e-14
8e-05
-5.02202e-16
3.02743e-14
8e-05
-5.89018e-16
3.14088e-14
8e-05
-8.99374e-16
3.24974e-14
8e-05
-1.36625e-15
3.34879e-14
8e-05
-1.86215e-15
3.43381e-14
8e-05
-2.39297e-15
3.49884e-14
8e-05
-3.22146e-15
3.53693e-14
8e-05
3.53953e-14
8e-05
3.38271e-16
2.78258e-14
8e-05
-1.61249e-16
2.81927e-14
8e-05
-5.18682e-16
2.88458e-14
8e-05
-5.18842e-16
2.97332e-14
8e-05
-2.32293e-16
3.08122e-14
8e-05
1.64719e-16
3.20308e-14
8e-05
4.98733e-16
3.33336e-14
8e-05
6.32307e-16
3.46728e-14
8e-05
4.996e-16
3.60016e-14
8e-05
9.02056e-17
3.72688e-14
8e-05
-5.16868e-16
3.84319e-14
8e-05
-1.21186e-15
3.94284e-14
8e-05
-2.01212e-15
4.01833e-14
8e-05
-3.19631e-15
4.06133e-14
8e-05
4.0583e-14
8e-05
7.06032e-16
3.02614e-14
8e-05
4.90927e-16
3.07029e-14
8e-05
3.69576e-16
3.14662e-14
8e-05
5.60236e-16
3.24903e-14
8e-05
9.8627e-16
3.37152e-14
8e-05
1.4675e-15
3.50821e-14
8e-05
1.83794e-15
3.65376e-14
8e-05
1.9611e-15
3.8026e-14
8e-05
1.76682e-15
3.94988e-14
8e-05
1.25421e-15
4.09082e-14
8e-05
4.78704e-16
4.22006e-14
8e-05
-4.5694e-16
4.33004e-14
8e-05
-1.58207e-15
4.41235e-14
8e-05
-3.2258e-15
4.45555e-14
8e-05
4.44323e-14
8e-05
1.14752e-15
3.15217e-14
8e-05
1.25428e-15
3.20135e-14
8e-05
1.39196e-15
3.2853e-14
8e-05
1.78598e-15
3.39627e-14
8e-05
2.35402e-15
3.52818e-14
8e-05
2.92301e-15
3.67423e-14
8e-05
3.32633e-15
3.82828e-14
8e-05
3.43389e-15
3.98562e-14
8e-05
3.17628e-15
4.1414e-14
8e-05
2.54657e-15
4.29067e-14
8e-05
1.57852e-15
4.42676e-14
8e-05
3.66974e-16
4.54239e-14
8e-05
-1.15004e-15
4.62702e-14
8e-05
-3.34983e-15
4.66693e-14
8e-05
4.64255e-14
8e-05
1.63931e-15
3.12346e-14
8e-05
2.09381e-15
3.17402e-14
8e-05
2.5025e-15
3.2599e-14
8e-05
3.10508e-15
3.37325e-14
8e-05
3.81371e-15
3.507e-14
8e-05
4.46439e-15
3.6542e-14
8e-05
4.89886e-15
3.80918e-14
8e-05
4.99167e-15
3.96696e-14
8e-05
4.66893e-15
4.12317e-14
8e-05
3.90841e-15
4.27271e-14
8e-05
2.73566e-15
4.40949e-14
8e-05
1.21241e-15
4.52441e-14
8e-05
-7.50976e-16
4.60664e-14
8e-05
-3.59277e-15
4.64013e-14
8e-05
4.60327e-14
8e-05
2.14499e-15
2.90861e-14
8e-05
2.95258e-15
2.95527e-14
8e-05
3.63598e-15
3.03603e-14
8e-05
4.44176e-15
3.1433e-14
8e-05
5.2857e-15
3.26986e-14
8e-05
6.01507e-15
3.40916e-14
8e-05
6.47659e-15
3.55532e-14
8e-05
6.55205e-15
3.70407e-14
8e-05
6.16521e-15
3.85126e-14
8e-05
5.27529e-15
3.99255e-14
8e-05
3.88405e-15
4.12179e-14
8e-05
2.03388e-15
4.22986e-14
8e-05
-4.15307e-16
4.30516e-14
8e-05
-3.96132e-15
4.33065e-14
8e-05
4.28363e-14
8e-05
2.61163e-15
2.49609e-14
8e-05
3.76096e-15
2.53296e-14
8e-05
4.70875e-15
2.60061e-14
8e-05
5.70732e-15
2.693e-14
8e-05
6.67955e-15
2.80323e-14
8e-05
7.47666e-15
2.9244e-14
8e-05
7.96412e-15
3.05173e-14
8e-05
8.02483e-15
3.18105e-14
8e-05
7.57814e-15
3.30934e-14
8e-05
6.56766e-15
3.43276e-14
8e-05
4.9647e-15
3.54543e-14
8e-05
2.78778e-15
3.63938e-14
8e-05
-1.60382e-16
3.70311e-14
8e-05
-4.43064e-15
3.7189e-14
8e-05
3.6667e-14
8e-05
2.97947e-15
1.90412e-14
8e-05
4.43829e-15
1.92312e-14
8e-05
5.63351e-15
1.96961e-14
8e-05
6.80966e-15
2.03881e-14
8e-05
7.89031e-15
2.12364e-14
8e-05
8.74908e-15
2.21802e-14
8e-05
9.25822e-15
2.3169e-14
8e-05
9.30774e-15
2.41735e-14
8e-05
8.81145e-15
2.517e-14
8e-05
7.69437e-15
2.61267e-14
8e-05
5.90508e-15
2.70037e-14
8e-05
3.42513e-15
2.77253e-14
8e-05
-3.38965e-18
2.81763e-14
8e-05
-4.95177e-15
2.82049e-14
8e-05
2.76099e-14
8e-05
3.1695e-15
1.14249e-14
8e-05
4.90225e-15
1.13875e-14
8e-05
6.32559e-15
1.15975e-14
8e-05
7.6588e-15
1.20096e-14
8e-05
8.83408e-15
1.25413e-14
8e-05
9.73708e-15
1.31363e-14
8e-05
1.02635e-14
1.37623e-14
8e-05
1.03034e-14
1.43903e-14
8e-05
9.76902e-15
1.50079e-14
8e-05
8.57135e-15
1.55952e-14
8e-05
6.62586e-15
1.6119e-14
8e-05
3.87616e-15
1.65189e-14
8e-05
2.52333e-17
1.66976e-14
8e-05
-5.54773e-15
1.64494e-14
8e-05
1.57097e-14
8e-05
3.13299e-15
1.89519e-15
8e-05
5.1131e-15
1.70523e-15
8e-05
6.73767e-15
1.68536e-15
8e-05
8.1905e-15
1.79812e-15
8e-05
9.42909e-15
1.97049e-15
8e-05
1.03632e-14
2.16131e-15
8e-05
1.08915e-14
2.34787e-15
8e-05
1.0921e-14
2.52047e-15
8e-05
1.03563e-14
2.66879e-15
8e-05
9.09516e-15
2.78171e-15
8e-05
7.02492e-15
2.83966e-15
8e-05
4.05484e-15
2.80765e-15
8e-05
-2.22045e-16
2.58647e-15
8e-05
-6.28751e-15
2.04958e-15
8e-05
1.42066e-15
8e-05
2.94304e-15
8e-05
5.09323e-15
8e-05
6.84956e-15
8e-05
8.36286e-15
8e-05
9.61904e-15
8e-05
1.05497e-14
8e-05
1.10641e-14
8e-05
1.10693e-14
8e-05
1.04683e-14
8e-05
9.15311e-15
8e-05
6.99378e-15
8e-05
3.83366e-15
8e-05
-7.58942e-16
8e-05
-6.91642e-15
8e-05
8e-05
-4.59742e-16
6.32819e-15
8e-05
-1.76859e-15
6.29626e-15
8e-05
-2.89174e-15
6.31534e-15
8e-05
-3.53347e-15
6.39951e-15
8e-05
-3.74018e-15
6.53983e-15
8e-05
-3.662e-15
6.72643e-15
8e-05
-3.46424e-15
6.94497e-15
8e-05
-3.29337e-15
7.17482e-15
8e-05
-3.22047e-15
7.40293e-15
8e-05
-3.24484e-15
7.6137e-15
8e-05
-3.29428e-15
7.78804e-15
8e-05
-3.2396e-15
7.91823e-15
8e-05
-3.08872e-15
7.98501e-15
8e-05
-3.10421e-15
7.97291e-15
8e-05
7.90774e-15
8e-05
-4.91674e-16
1.14735e-14
8e-05
-1.74951e-15
1.15142e-14
8e-05
-2.80757e-15
1.16434e-14
8e-05
-3.39316e-15
1.18776e-14
8e-05
-3.55358e-15
1.22037e-14
8e-05
-3.44433e-15
1.26062e-14
8e-05
-3.23439e-15
1.30599e-14
8e-05
-3.06526e-15
1.35352e-14
8e-05
-3.00971e-15
1.40071e-14
8e-05
-3.0705e-15
1.44502e-14
8e-05
-3.16496e-15
1.48423e-14
8e-05
-3.17368e-15
1.51588e-14
8e-05
-3.10082e-15
1.53748e-14
8e-05
-3.16851e-15
1.5485e-14
8e-05
1.54711e-14
8e-05
-4.51776e-16
1.61139e-14
8e-05
-1.61944e-15
1.62396e-14
8e-05
-2.57516e-15
1.65034e-14
8e-05
-3.06612e-15
1.69092e-14
8e-05
-3.15113e-15
1.74409e-14
8e-05
-2.99149e-15
1.80724e-14
8e-05
-2.75821e-15
1.87705e-14
8e-05
-2.59341e-15
1.94983e-14
8e-05
-2.56652e-15
2.02242e-14
8e-05
-2.67841e-15
2.09112e-14
8e-05
-2.84846e-15
2.15313e-14
8e-05
-2.95688e-15
2.20501e-14
8e-05
-2.99232e-15
2.24413e-14
8e-05
-3.18152e-15
2.26711e-14
8e-05
2.27093e-14
8e-05
-3.26048e-16
2.039e-14
8e-05
-1.35655e-15
2.06007e-14
8e-05
-2.16844e-15
2.10083e-14
8e-05
-2.53443e-15
2.15956e-14
8e-05
-2.51965e-15
2.23398e-14
8e-05
-2.29161e-15
2.32028e-14
8e-05
-2.03136e-15
2.4144e-14
8e-05
-1.8683e-15
2.51223e-14
8e-05
-1.87953e-15
2.60955e-14
8e-05
-2.05829e-15
2.70235e-14
8e-05
-2.32969e-15
2.78667e-14
8e-05
-2.56574e-15
2.85882e-14
8e-05
-2.7616e-15
2.91425e-14
8e-05
-3.14332e-15
2.94815e-14
8e-05
2.95406e-14
8e-05
-1.15279e-16
2.42713e-14
8e-05
-9.48974e-16
2.4568e-14
8e-05
-1.5812e-15
2.51162e-14
8e-05
-1.78933e-15
2.58873e-14
8e-05
-1.65666e-15
2.68396e-14
8e-05
-1.35131e-15
2.79265e-14
8e-05
-1.05211e-15
2.91008e-14
8e-05
-8.95985e-16
3.03134e-14
8e-05
-9.50668e-16
3.15173e-14
8e-05
-1.21427e-15
3.26709e-14
8e-05
-1.609e-15
3.37221e-14
8e-05
-2.01232e-15
3.4625e-14
8e-05
-2.42171e-15
3.53189e-14
8e-05
-3.08517e-15
3.57345e-14
8e-05
3.57778e-14
8e-05
1.81398e-16
2.7603e-14
8e-05
-4.00761e-16
2.79863e-14
8e-05
-8.10116e-16
2.86697e-14
8e-05
-8.37871e-16
2.961e-14
8e-05
-5.6887e-16
3.07524e-14
8e-05
-1.77022e-16
3.20411e-14
8e-05
1.59595e-16
3.34203e-14
8e-05
3.08781e-16
3.48367e-14
8e-05
2.02055e-16
3.62427e-14
8e-05
-1.62157e-16
3.75846e-14
8e-05
-7.06072e-16
3.88153e-14
8e-05
-1.31843e-15
3.98692e-14
8e-05
-2.00617e-15
4.06707e-14
8e-05
-3.04188e-15
4.11277e-14
8e-05
4.11122e-14
8e-05
5.62998e-16
3.01304e-14
8e-05
2.83508e-16
3.05918e-14
8e-05
1.30104e-16
3.13942e-14
8e-05
3.05391e-16
3.24732e-14
8e-05
7.19043e-16
3.37664e-14
8e-05
1.20212e-15
3.5214e-14
8e-05
1.576e-15
3.67509e-14
8e-05
1.71477e-15
3.83261e-14
8e-05
1.54394e-15
3.98813e-14
8e-05
1.06855e-15
4.13714e-14
8e-05
3.46985e-16
4.27305e-14
8e-05
-5.16948e-16
4.38885e-14
8e-05
-1.54828e-15
4.47524e-14
8e-05
-3.05824e-15
4.52086e-14
8e-05
4.50862e-14
8e-05
1.02435e-15
3.14913e-14
8e-05
1.08594e-15
3.20049e-14
8e-05
1.2091e-15
3.28852e-14
8e-05
1.59772e-15
3.40544e-14
8e-05
2.16667e-15
3.54465e-14
8e-05
2.73905e-15
3.69895e-14
8e-05
3.15113e-15
3.86202e-14
8e-05
3.26995e-15
4.02812e-14
8e-05
3.03411e-15
4.19248e-14
8e-05
2.42767e-15
4.34939e-14
8e-05
1.50582e-15
4.49259e-14
8e-05
3.47772e-16
4.61315e-14
8e-05
-1.09292e-15
4.70136e-14
8e-05
-3.17975e-15
4.74265e-14
8e-05
4.7175e-14
8e-05
1.53704e-15
3.12943e-14
8e-05
1.9654e-15
3.18209e-14
8e-05
2.37917e-15
3.27238e-14
8e-05
2.9907e-15
3.39173e-14
8e-05
3.70967e-15
3.53259e-14
8e-05
4.36973e-15
3.68786e-14
8e-05
4.81212e-15
3.85144e-14
8e-05
4.9136e-15
4.01788e-14
8e-05
4.60313e-15
4.18225e-14
8e-05
3.85972e-15
4.33932e-14
8e-05
2.71137e-15
4.48236e-14
8e-05
1.22905e-15
4.60205e-14
8e-05
-6.80879e-16
4.68679e-14
8e-05
-3.43124e-15
4.72079e-14
8e-05
4.6821e-14
8e-05
2.06444e-15
2.9205e-14
8e-05
2.86919e-15
2.96941e-14
8e-05
3.5718e-15
3.05441e-14
8e-05
4.39934e-15
3.16717e-14
8e-05
5.26232e-15
3.30074e-14
8e-05
6.00553e-15
3.44749e-14
8e-05
6.47659e-15
3.60154e-14
8e-05
6.55725e-15
3.7581e-14
8e-05
6.17301e-15
3.91292e-14
8e-05
5.29004e-15
4.06081e-14
8e-05
3.90916e-15
4.19542e-14
8e-05
2.07642e-15
4.30741e-14
8e-05
-3.39966e-16
4.3846e-14
8e-05
-3.81817e-15
4.40984e-14
8e-05
4.36075e-14
8e-05
2.55351e-15
2.51023e-14
8e-05
3.71925e-15
2.54927e-14
8e-05
4.69937e-15
2.62048e-14
8e-05
5.73417e-15
2.71805e-14
8e-05
6.73073e-15
2.83393e-14
8e-05
7.54597e-15
2.96178e-14
8e-05
8.04305e-15
3.0957e-14
8e-05
8.10463e-15
3.23179e-14
8e-05
7.65195e-15
3.36623e-14
8e-05
6.63524e-15
3.49521e-14
8e-05
5.02904e-15
3.61231e-14
8e-05
2.84838e-15
3.70919e-14
8e-05
-8.76434e-17
3.77397e-14
8e-05
-4.30992e-15
3.78986e-14
8e-05
3.73391e-14
8e-05
2.94304e-15
1.91721e-14
8e-05
4.43135e-15
1.9382e-14
8e-05
5.67511e-15
1.98773e-14
8e-05
6.89292e-15
2.0612e-14
8e-05
8.00839e-15
2.15071e-14
8e-05
8.88521e-15
2.24967e-14
8e-05
9.40394e-15
2.35376e-14
8e-05
9.44904e-15
2.45914e-14
8e-05
8.94167e-15
2.56331e-14
8e-05
7.80708e-15
2.66306e-14
8e-05
5.99698e-15
2.75404e-14
8e-05
3.49626e-15
2.82829e-14
8e-05
7.03361e-17
2.87504e-14
8e-05
-4.86945e-15
2.87469e-14
8e-05
2.81572e-14
8e-05
3.15377e-15
1.15316e-14
8e-05
4.92752e-15
1.15134e-14
8e-05
6.40894e-15
1.17493e-14
8e-05
7.78804e-15
1.21882e-14
8e-05
8.99888e-15
1.27494e-14
8e-05
9.92605e-15
1.33747e-14
8e-05
1.04578e-14
1.40304e-14
8e-05
1.04907e-14
1.46888e-14
8e-05
9.93914e-15
1.5335e-14
8e-05
8.71695e-15
1.59473e-14
8e-05
6.74031e-15
1.64885e-14
8e-05
3.9638e-15
1.69058e-14
8e-05
6.76542e-17
1.70646e-14
8e-05
-5.45913e-15
1.68547e-14
8e-05
1.6054e-14
8e-05
3.13477e-15
2.00625e-15
8e-05
5.16336e-15
1.83005e-15
8e-05
6.8479e-15
1.82406e-15
8e-05
8.35005e-15
1.94896e-15
8e-05
9.62421e-15
2.13194e-15
8e-05
1.05809e-14
2.33399e-15
8e-05
1.1117e-14
2.53013e-15
8e-05
1.11378e-14
2.71141e-15
8e-05
1.05506e-14
2.8658e-15
8e-05
9.25818e-15
2.98546e-15
8e-05
7.15755e-15
3.05315e-15
8e-05
4.12344e-15
3.01065e-15
8e-05
-1.42247e-16
2.81628e-15
8e-05
-6.25892e-15
2.23077e-15
8e-05
1.61676e-15
8e-05
2.95944e-15
8e-05
5.15651e-15
8e-05
6.9728e-15
8e-05
8.53302e-15
8e-05
9.82626e-15
8e-05
1.0777e-14
8e-05
1.12974e-14
8e-05
1.1293e-14
8e-05
1.06703e-14
8e-05
9.32587e-15
8e-05
7.11505e-15
8e-05
3.9282e-15
8e-05
-7.28624e-16
8e-05
-6.87293e-15
8e-05
8e-05
-6.66961e-16
6.17033e-15
8e-05
-2.12685e-15
6.14171e-15
8e-05
-3.36619e-15
6.16351e-15
8e-05
-4.09304e-15
6.25368e-15
8e-05
-4.35337e-15
6.40452e-15
8e-05
-4.29683e-15
6.60157e-15
8e-05
-4.09746e-15
6.83217e-15
8e-05
-3.89962e-15
7.07507e-15
8e-05
-3.77571e-15
7.31785e-15
8e-05
-3.72181e-15
7.54088e-15
8e-05
-3.66977e-15
7.7317e-15
8e-05
-3.48944e-15
7.8756e-15
8e-05
-3.1859e-15
7.95891e-15
8e-05
-2.99662e-15
7.96936e-15
8e-05
7.925e-15
8e-05
-6.95584e-16
1.12142e-14
8e-05
-2.10591e-15
1.12601e-14
8e-05
-3.27603e-15
1.14015e-14
8e-05
-3.9422e-15
1.1653e-14
8e-05
-4.15632e-15
1.20035e-14
8e-05
-4.06623e-15
1.24371e-14
8e-05
-3.85456e-15
1.29211e-14
8e-05
-3.6577e-15
1.34302e-14
8e-05
-3.55267e-15
1.39359e-14
8e-05
-3.53186e-15
1.44121e-14
8e-05
-3.525e-15
1.48344e-14
8e-05
-3.40613e-15
1.51806e-14
8e-05
-3.17458e-15
1.54277e-14
8e-05
-3.04184e-15
1.55613e-14
8e-05
1.557e-14
8e-05
-6.49694e-16
1.57981e-14
8e-05
-1.96367e-15
1.59318e-14
8e-05
-3.02358e-15
1.62171e-14
8e-05
-3.59178e-15
1.66551e-14
8e-05
-3.72272e-15
1.72276e-14
8e-05
-3.5822e-15
1.7905e-14
8e-05
-3.34545e-15
1.86535e-14
8e-05
-3.15195e-15
1.94342e-14
8e-05
-3.07653e-15
2.02113e-14
8e-05
-3.11036e-15
2.09477e-14
8e-05
-3.17888e-15
2.16129e-14
8e-05
-3.15984e-15
2.21758e-14
8e-05
-3.0401e-15
2.26035e-14
8e-05
-3.0323e-15
2.28629e-14
8e-05
2.29218e-14
8e-05
-5.15173e-16
2.00621e-14
8e-05
-1.67921e-15
2.02849e-14
8e-05
-2.58647e-15
2.07212e-14
8e-05
-3.01929e-15
2.13518e-14
8e-05
-3.04617e-15
2.21524e-14
8e-05
-2.83367e-15
2.30796e-14
8e-05
-2.56479e-15
2.40875e-14
8e-05
-2.37484e-15
2.51352e-14
8e-05
-2.33927e-15
2.61735e-14
8e-05
-2.446e-15
2.71666e-14
8e-05
-2.61596e-15
2.80704e-14
8e-05
-2.73128e-15
2.88424e-14
8e-05
-2.7825e-15
2.94391e-14
8e-05
-2.97332e-15
2.98128e-14
8e-05
2.9891e-14
8e-05
-2.93168e-16
2.39738e-14
8e-05
-1.24297e-15
2.42861e-14
8e-05
-1.95499e-15
2.48716e-14
8e-05
-2.21954e-15
2.56948e-14
8e-05
-2.11814e-15
2.67139e-14
8e-05
-1.82493e-15
2.78787e-14
8e-05
-1.51788e-15
2.91339e-14
8e-05
-1.33656e-15
3.04306e-14
8e-05
-1.34705e-15
3.17159e-14
8e-05
-1.5413e-15
3.29441e-14
8e-05
-1.84401e-15
3.40682e-14
8e-05
-2.13544e-15
3.50284e-14
8e-05
-2.40788e-15
3.57717e-14
8e-05
-2.89513e-15
3.6221e-14
8e-05
3.62791e-14
8e-05
1.99892e-17
2.73679e-14
8e-05
-6.575e-16
2.77729e-14
8e-05
-1.13183e-15
2.85006e-14
8e-05
-1.20043e-15
2.95024e-14
8e-05
-9.5327e-16
3.0721e-14
8e-05
-5.68949e-16
3.20958e-14
8e-05
-2.21177e-16
3.35686e-14
8e-05
-5.12541e-17
3.50787e-14
8e-05
-1.18789e-16
3.65767e-14
8e-05
-4.17201e-16
3.80078e-14
8e-05
-8.82934e-16
3.93114e-14
8e-05
-1.39216e-15
4.04286e-14
8e-05
-1.95858e-15
4.12769e-14
8e-05
-2.83619e-15
4.17627e-14
8e-05
4.17565e-14
8e-05
4.2414e-16
2.99838e-14
8e-05
7.10838e-17
3.04696e-14
8e-05
-1.30932e-16
3.13178e-14
8e-05
1.9082e-17
3.24663e-14
8e-05
4.20631e-16
3.38427e-14
8e-05
9.03831e-16
3.53858e-14
8e-05
1.2889e-15
3.70233e-14
8e-05
1.44676e-15
3.86991e-14
8e-05
1.31228e-15
4.03549e-14
8e-05
8.86484e-16
4.19326e-14
8e-05
2.34188e-16
4.33707e-14
8e-05
-5.43836e-16
4.45911e-14
8e-05
-1.47278e-15
4.55001e-14
8e-05
-2.84321e-15
4.59753e-14
8e-05
4.58557e-14
8e-05
9.08995e-16
3.14445e-14
8e-05
9.18496e-16
3.19805e-14
8e-05
1.01836e-15
3.29103e-14
8e-05
1.39468e-15
3.41515e-14
8e-05
1.96371e-15
3.56321e-14
8e-05
2.54137e-15
3.72697e-14
8e-05
2.96464e-15
3.90044e-14
8e-05
3.10255e-15