/*--------------------------------*- C++ -*----------------------------------*\
| =========                 |                                                 |
| \\      /  F ield         | OpenFOAM: The Open Source CFD Toolbox           |
|  \\    /   O peration     | Version:  v2012                                 |
|   \\  /    A nd           | Website:  www.openfoam.com                      |
|    \\/     M anipulation  |                                                 |
\*---------------------------------------------------------------------------*/
FoamFile
{
    version     2.0;
    format      ascii;
    class       volVectorField;
    location    "0";
    object      U;
}
// * * * * * * * * * * * * * * * * * * * * * * * * * * * * * * * * * * * * * //

dimensions      [0 1 -1 0 0 0 0];


internalField   nonuniform List<vector> 
11250
(
(6.59949e-12 7.30285e-10 20)
(-1.01439e-10 7.26801e-10 20)
(-3.21391e-10 7.28207e-10 20)
(-4.85723e-10 7.36229e-10 20)
(-5.60198e-10 7.50084e-10 20)
(-5.63408e-10 7.68648e-10 20)
(-5.29284e-10 7.90431e-10 20)
(-4.90814e-10 8.13717e-10 20)
(-4.70822e-10 8.36533e-10 20)
(-4.78652e-10 8.56987e-10 20)
(-5.08071e-10 8.73867e-10 20)
(-5.37014e-10 8.84996e-10 20)
(-5.52382e-10 8.87636e-10 20)
(-5.9509e-10 8.79806e-10 20)
(-3.16591e-10 8.65198e-10 20)
(3.11553e-12 2.04084e-09 20)
(-1.03518e-10 2.04179e-09 20)
(-3.12057e-10 2.05565e-09 20)
(-4.6394e-10 2.08581e-09 20)
(-5.27591e-10 2.13116e-09 20)
(-5.22873e-10 2.18867e-09 20)
(-4.84308e-10 2.2542e-09 20)
(-4.44806e-10 2.32359e-09 20)
(-4.27553e-10 2.39232e-09 20)
(-4.41223e-10 2.45528e-09 20)
(-4.79967e-10 2.50856e-09 20)
(-5.23245e-10 2.54768e-09 20)
(-5.57571e-10 2.56711e-09 20)
(-6.17434e-10 2.56381e-09 20)
(-3.31106e-10 2.54137e-09 20)
(7.73517e-12 3.13609e-09 20)
(-8.6346e-11 3.15371e-09 20)
(-2.77461e-10 3.19218e-09 20)
(-4.10304e-10 3.25327e-09 20)
(-4.57156e-10 3.33557e-09 20)
(-4.40186e-10 3.43495e-09 20)
(-3.94362e-10 3.54535e-09 20)
(-3.5279e-10 3.66131e-09 20)
(-3.3903e-10 3.77623e-09 20)
(-3.62312e-10 3.8839e-09 20)
(-4.15768e-10 3.97809e-09 20)
(-4.78467e-10 4.05312e-09 20)
(-5.36256e-10 4.10366e-09 20)
(-6.20828e-10 4.12592e-09 20)
(-3.38935e-10 4.11667e-09 20)
(2.09298e-11 4.1163e-09 20)
(-4.72335e-11 4.15118e-09 20)
(-2.12499e-10 4.21717e-09 20)
(-3.20363e-10 4.31277e-09 20)
(-3.45822e-10 4.43449e-09 20)
(-3.13099e-10 4.57751e-09 20)
(-2.57852e-10 4.73421e-09 20)
(-2.13922e-10 4.8974e-09 20)
(-2.04867e-10 5.0589e-09 20)
(-2.39549e-10 5.21162e-09 20)
(-3.11025e-10 5.34871e-09 20)
(-3.97585e-10 5.4625e-09 20)
(-4.8478e-10 5.54622e-09 20)
(-6.04608e-10 5.59317e-09 20)
(-3.40444e-10 5.59375e-09 20)
(4.27125e-11 4.99222e-09 20)
(1.44333e-11 5.04474e-09 20)
(-1.15967e-10 5.13845e-09 20)
(-1.92804e-10 5.26903e-09 20)
(-1.92517e-10 5.43119e-09 20)
(-1.4056e-10 5.61767e-09 20)
(-7.45612e-11 5.81989e-09 20)
(-2.82835e-11 6.02882e-09 20)
(-2.4714e-11 6.23586e-09 20)
(-7.25001e-11 6.43299e-09 20)
(-1.64987e-10 6.61164e-09 20)
(-2.80774e-10 6.76316e-09 20)
(-4.05397e-10 6.87742e-09 20)
(-5.73299e-10 6.94455e-09 20)
(-3.38357e-10 6.94879e-09 20)
(7.35415e-11 5.74467e-09 20)
(9.90953e-11 5.81444e-09 20)
(1.17935e-11 5.9353e-09 20)
(-2.76279e-11 6.09953e-09 20)
(2.63112e-12 6.30007e-09 20)
(7.54184e-11 6.52727e-09 20)
(1.53198e-10 6.77116e-09 20)
(2.02039e-10 7.02213e-09 20)
(1.99498e-10 7.27084e-09 20)
(1.36421e-10 7.50834e-09 20)
(1.91472e-11 7.72488e-09 20)
(-1.31801e-10 7.90958e-09 20)
(-3.03208e-10 8.05025e-09 20)
(-5.3314e-10 8.13199e-09 20)
(-3.36197e-10 8.13283e-09 20)
(1.12389e-10 6.33438e-09 20)
(2.05064e-10 6.4196e-09 20)
(1.69315e-10 6.56527e-09 20)
(1.72058e-10 6.75947e-09 20)
(2.35319e-10 6.99302e-09 20)
(3.30536e-10 7.25473e-09 20)
(4.20203e-10 7.53352e-09 20)
(4.71487e-10 7.81937e-09 20)
(4.61489e-10 8.10277e-09 20)
(3.81451e-10 8.37325e-09 20)
(2.36262e-10 8.62092e-09 20)
(4.44994e-11 8.832e-09 20)
(-1.83089e-10 8.99229e-09 20)
(-4.90814e-10 9.08222e-09 20)
(-3.37607e-10 9.07186e-09 20)
(1.58572e-10 6.70273e-09 20)
(3.29795e-10 6.80049e-09 20)
(3.51757e-10 6.96463e-09 20)
(4.00212e-10 7.18129e-09 20)
(4.97884e-10 7.43894e-09 20)
(6.15917e-10 7.72517e-09 20)
(7.17746e-10 8.02856e-09 20)
(7.71198e-10 8.33855e-09 20)
(7.53375e-10 8.64533e-09 20)
(6.54575e-10 8.93891e-09 20)
(4.77902e-10 9.20752e-09 20)
(2.39656e-10 9.43643e-09 20)
(-5.29888e-11 9.60792e-09 20)
(-4.53664e-10 9.69833e-09 20)
(-3.46559e-10 9.66995e-09 20)
(2.10061e-10 6.77984e-09 20)
(4.66965e-10 6.88375e-09 20)
(5.50115e-10 7.05683e-09 20)
(6.46373e-10 7.28461e-09 20)
(7.79104e-10 7.5533e-09 20)
(9.20063e-10 7.8502e-09 20)
(1.03368e-09 8.16357e-09 20)
(1.08826e-09 8.48289e-09 20)
(1.06194e-09 8.79872e-09 20)
(9.43633e-10 9.10174e-09 20)
(7.33684e-10 9.37891e-09 20)
(4.449e-10 9.61489e-09 20)
(7.88124e-11 9.78855e-09 20)
(-4.28778e-10 9.87218e-09 20)
(-3.65985e-10 9.82183e-09 20)
(2.62476e-10 6.4989e-09 20)
(6.06879e-10 6.59891e-09 20)
(7.52625e-10 6.76844e-09 20)
(8.96777e-10 6.99196e-09 20)
(1.06347e-09 7.25549e-09 20)
(1.22599e-09 7.54577e-09 20)
(1.35044e-09 7.85094e-09 20)
(1.40635e-09 8.16187e-09 20)
(1.37223e-09 8.46979e-09 20)
(1.23467e-09 8.76573e-09 20)
(9.90952e-10 9.03687e-09 20)
(6.49386e-10 9.26663e-09 20)
(2.04301e-10 9.43246e-09 20)
(-4.20572e-10 9.50336e-09 20)
(-3.97007e-10 9.43171e-09 20)
(3.10077e-10 5.81954e-09 20)
(7.36418e-10 5.90354e-09 20)
(9.43166e-10 6.05324e-09 20)
(1.13351e-09 6.25529e-09 20)
(1.33291e-09 6.49503e-09 20)
(1.51543e-09 6.7591e-09 20)
(1.64969e-09 7.03684e-09 20)
(1.7071e-09 7.3195e-09 20)
(1.66571e-09 7.60016e-09 20)
(1.51062e-09 7.86988e-09 20)
(1.23467e-09 8.11813e-09 20)
(8.40681e-10 8.32678e-09 20)
(3.1564e-10 8.47469e-09 20)
(-4.29623e-10 8.52834e-09 20)
(-4.37726e-10 8.44132e-09 20)
(3.46473e-10 4.75286e-09 20)
(8.40488e-10 4.80557e-09 20)
(1.10438e-09 4.91831e-09 20)
(1.33866e-09 5.08133e-09 20)
(1.56746e-09 5.27893e-09 20)
(1.768e-09 5.49794e-09 20)
(1.91084e-09 5.72855e-09 20)
(1.96967e-09 5.9633e-09 20)
(1.92253e-09 6.19617e-09 20)
(1.75254e-09 6.42092e-09 20)
(1.44794e-09 6.62721e-09 20)
(1.00595e-09 6.79964e-09 20)
(4.05774e-10 6.91758e-09 20)
(-4.53946e-10 6.9503e-09 20)
(-4.8403e-10 6.85432e-09 20)
(3.62689e-10 3.33207e-09 20)
(9.01868e-10 3.3366e-09 20)
(1.21902e-09 3.39873e-09 20)
(1.49422e-09 3.50866e-09 20)
(1.74971e-09 3.64923e-09 20)
(1.96514e-09 3.80668e-09 20)
(2.11505e-09 3.97242e-09 20)
(2.17472e-09 4.14089e-09 20)
(2.12333e-09 4.30739e-09 20)
(1.94166e-09 4.46767e-09 20)
(1.61349e-09 4.61295e-09 20)
(1.13114e-09 4.73145e-09 20)
(4.66203e-10 4.80565e-09 20)
(-4.92978e-10 4.80602e-09 20)
(-5.33706e-10 4.65895e-09 20)
(3.50994e-10 1.51948e-09 20)
(9.07143e-10 1.48008e-09 20)
(1.27635e-09 1.49035e-09 20)
(1.58906e-09 1.54136e-09 20)
(1.86548e-09 1.61395e-09 20)
(2.09119e-09 1.69636e-09 20)
(2.24495e-09 1.78149e-09 20)
(2.30445e-09 1.86586e-09 20)
(2.24921e-09 1.94732e-09 20)
(2.05819e-09 2.02219e-09 20)
(1.71181e-09 2.08506e-09 20)
(1.19866e-09 2.12872e-09 20)
(4.80344e-10 2.13974e-09 20)
(-6.00648e-10 2.05225e-09 20)
(-6.311e-10 1.86813e-09 20)
(3.23379e-10 2.51342e-10 20)
(8.72646e-10 2.23727e-10 20)
(1.28002e-09 2.16939e-10 20)
(1.61773e-09 2.27494e-10 20)
(1.90471e-09 2.45604e-10 20)
(2.13277e-09 2.66718e-10 20)
(2.28456e-09 2.87087e-10 20)
(2.34046e-09 3.06225e-10 20)
(2.27946e-09 3.23007e-10 20)
(2.07941e-09 3.36578e-10 20)
(1.72011e-09 3.44314e-10 20)
(1.18564e-09 3.44785e-10 20)
(3.8964e-10 3.31389e-10 20)
(-7.64594e-10 2.54175e-10 20)
(-7.17832e-10 1.67443e-10 20)
(-1.15106e-11 7.19147e-10 20)
(-1.41323e-10 7.15573e-10 20)
(-3.65235e-10 7.17365e-10 20)
(-5.29854e-10 7.25567e-10 20)
(-6.04136e-10 7.39906e-10 20)
(-6.07068e-10 7.58564e-10 20)
(-5.72939e-10 7.80634e-10 20)
(-5.34276e-10 8.04204e-10 20)
(-5.14272e-10 8.27302e-10 20)
(-5.22105e-10 8.4812e-10 20)
(-5.50869e-10 8.65193e-10 20)
(-5.79521e-10 8.76884e-10 20)
(-5.96123e-10 8.80835e-10 20)
(-6.3686e-10 8.75093e-10 20)
(-3.35923e-10 8.62836e-10 20)
(-1.49903e-11 2.01632e-09 20)
(-1.43106e-10 2.01728e-09 20)
(-3.55335e-10 2.03189e-09 20)
(-5.07312e-10 2.06273e-09 20)
(-5.7095e-10 2.10929e-09 20)
(-5.66339e-10 2.16774e-09 20)
(-5.27488e-10 2.23479e-09 20)
(-4.87608e-10 2.30541e-09 20)
(-4.70261e-10 2.37517e-09 20)
(-4.8412e-10 2.43964e-09 20)
(-5.22105e-10 2.49424e-09 20)
(-5.63785e-10 2.53524e-09 20)
(-5.97914e-10 2.55759e-09 20)
(-6.54858e-10 2.55805e-09 20)
(-3.48085e-10 2.5393e-09 20)
(-1.03706e-11 3.10921e-09 20)
(-1.25759e-10 3.12675e-09 20)
(-3.20067e-10 3.16596e-09 20)
(-4.52451e-10 3.22865e-09 20)
(-4.9893e-10 3.31284e-09 20)
(-4.8166e-10 3.41476e-09 20)
(-4.35463e-10 3.52818e-09 20)
(-3.9399e-10 3.6466e-09 20)
(-3.80036e-10 3.76416e-09 20)
(-4.02946e-10 3.87455e-09 20)
(-4.55271e-10 3.97205e-09 20)
(-5.1608e-10 4.05049e-09 20)
(-5.73316e-10 4.10422e-09 20)
(-6.55235e-10 4.12958e-09 20)
(-3.54667e-10 4.12233e-09 20)
(2.64847e-12 4.09046e-09 20)
(-8.62561e-11 4.12517e-09 20)
(-2.53626e-10 4.19209e-09 20)
(-3.60529e-10 4.29023e-09 20)
(-3.8475e-10 4.41525e-09 20)
(-3.50999e-10 4.56185e-09 20)
(-2.95554e-10 4.7226e-09 20)
(-2.51535e-10 4.88985e-09 20)
(-2.42399e-10 5.05578e-09 20)
(-2.7633e-10 5.21303e-09 20)
(-3.46267e-10 5.35473e-09 20)
(-4.31701e-10 5.47296e-09 20)
(-5.18814e-10 5.56054e-09 20)
(-6.36842e-10 5.61012e-09 20)
(-3.5543e-10 5.61144e-09 20)
(2.43412e-11 4.9715e-09 20)
(-2.40323e-11 5.02371e-09 20)
(-1.55011e-10 5.11885e-09 20)
(-2.29388e-10 5.25302e-09 20)
(-2.27211e-10 5.41951e-09 20)
(-1.74312e-10 5.6108e-09 20)
(-1.07469e-10 5.81811e-09 20)
(-6.0621e-11 6.03288e-09 20)
(-5.68499e-11 6.24595e-09 20)
(-1.04083e-10 6.44922e-09 20)
(-1.95534e-10 6.63353e-09 20)
(-3.10365e-10 6.79011e-09 20)
(-4.36149e-10 6.9092e-09 20)
(-6.04428e-10 6.97848e-09 20)
(-3.53347e-10 6.98178e-09 20)
(5.47671e-11 5.73345e-09 20)
(6.10924e-11 5.80303e-09 20)
(-2.42296e-11 5.92607e-09 20)
(-5.98668e-11 6.09483e-09 20)
(-2.70579e-11 6.30063e-09 20)
(4.75077e-11 6.53396e-09 20)
(1.26427e-10 6.78446e-09 20)
(1.76301e-10 7.0424e-09 20)
(1.73944e-10 7.29837e-09 20)
(1.11154e-10 7.54311e-09 20)
(-5.37387e-12 7.76627e-09 20)
(-1.55937e-10 7.95702e-09 20)
(-3.30352e-10 8.1021e-09 20)
(-5.64351e-10 8.18528e-09 20)
(-3.52224e-10 8.18291e-09 20)
(9.4013e-11 6.33616e-09 20)
(1.6887e-10 6.42178e-09 20)
(1.36884e-10 6.57036e-09 20)
(1.45077e-10 6.76976e-09 20)
(2.11826e-10 7.00978e-09 20)
(3.0961e-10 7.27839e-09 20)
(4.01069e-10 7.56508e-09 20)
(4.53291e-10 7.85895e-09 20)
(4.43854e-10 8.15017e-09 20)
(3.63726e-10 8.42878e-09 20)
(2.18375e-10 8.6836e-09 20)
(2.54639e-11 8.9014e-09 20)
(-2.0779e-10 9.06564e-09 20)
(-5.23528e-10 9.15537e-09 20)
(-3.55721e-10 9.13935e-09 20)
(1.40475e-10 6.71847e-09 20)
(2.95477e-10 6.81709e-09 20)
(3.23658e-10 6.98508e-09 20)
(3.79368e-10 7.20758e-09 20)
(4.81574e-10 7.47232e-09 20)
(6.02808e-10 7.76656e-09 20)
(7.06985e-10 8.07844e-09 20)
(7.61393e-10 8.39691e-09 20)
(7.43771e-10 8.71218e-09 20)
(6.44582e-10 9.01407e-09 20)
(4.67253e-10 9.29058e-09 20)
(2.26003e-10 9.5258e-09 20)
(-7.65714e-11 9.70087e-09 20)
(-4.90634e-10 9.78929e-09 20)
(-3.68149e-10 9.75253e-09 20)
(1.92534e-10 6.80672e-09 20)
(4.35292e-10 6.91174e-09 20)
(5.27282e-10 7.08947e-09 20)
(6.32411e-10 7.32346e-09 20)
(7.70906e-10 7.59969e-09 20)
(9.15632e-10 7.90515e-09 20)
(1.03132e-09 8.22694e-09 20)
(1.08703e-09 8.55503e-09 20)
(1.0611e-09 8.87954e-09 20)
(9.42219e-10 9.19111e-09 20)
(7.30204e-10 9.47642e-09 20)
(4.35849e-10 9.71803e-09 20)
(5.56069e-11 9.89415e-09 20)
(-4.71958e-10 9.97402e-09 20)
(-3.92481e-10 9.91282e-09 20)
(2.45587e-10 6.53048e-09 20)
(5.78218e-10 6.63238e-09 20)
(7.35372e-10 6.80634e-09 20)
(8.89688e-10 7.03638e-09 20)
(1.06327e-09 7.30752e-09 20)
(1.23015e-09 7.60564e-09 20)
(1.35696e-09 7.91891e-09 20)
(1.41399e-09 8.23833e-09 20)
(1.37985e-09 8.55472e-09 20)
(1.24146e-09 8.85869e-09 20)
(9.94081e-10 9.13727e-09 20)
(6.43733e-10 9.37231e-09 20)
(1.79506e-10 9.53948e-09 20)
(-4.71958e-10 9.6048e-09 20)
(-4.29344e-10 9.52127e-09 20)
(2.94432e-10 5.846e-09 20)
(7.11245e-10 5.93287e-09 20)
(9.31471e-10 6.08699e-09 20)
(1.1336e-09 6.29499e-09 20)
(1.34007e-09 6.54161e-09 20)
(1.52721e-09 6.81294e-09 20)
(1.6641e-09 7.09785e-09 20)
(1.72284e-09 7.38784e-09 20)
(1.68146e-09 7.67577e-09 20)
(1.52467e-09 7.95267e-09 20)
(1.24373e-09 8.20666e-09 20)
(8.38058e-10 8.4202e-09 20)
(2.88192e-10 8.56821e-09 20)
(-4.90162e-10 8.61583e-09 20)
(-4.76003e-10 8.51598e-09 20)
(3.32452e-10 4.76182e-09 20)
(8.19297e-10 4.81819e-09 20)
(1.09759e-09 4.93576e-09 20)
(1.34432e-09 5.10367e-09 20)
(1.58122e-09 5.30684e-09 20)
(1.78648e-09 5.5316e-09 20)
(1.93195e-09 5.76758e-09 20)
(1.99182e-09 6.00789e-09 20)
(1.94478e-09 6.24632e-09 20)
(1.77253e-09 6.47627e-09 20)
(1.46151e-09 6.68717e-09 20)
(1.00528e-09 6.86253e-09 20)
(3.75237e-10 6.97981e-09 20)
(-5.24188e-10 7.00329e-09 20)
(-5.29202e-10 6.89318e-09 20)
(3.5081e-10 3.30635e-09 20)
(8.85283e-10 3.31792e-09 20)
(1.21695e-09 3.38535e-09 20)
(1.50449e-09 3.49932e-09 20)
(1.76791e-09 3.64311e-09 20)
(1.98795e-09 3.80366e-09 20)
(2.14039e-09 3.9726e-09 20)
(2.20159e-09 4.1442e-09 20)
(2.14984e-09 4.31342e-09 20)
(1.96552e-09 4.47596e-09 20)
(1.62989e-09 4.6236e-09 20)
(1.1307e-09 4.74258e-09 20)
(4.29044e-10 4.81131e-09 20)
(-5.7689e-10 4.79678e-09 20)
(-5.86206e-10 4.65463e-09 20)
(3.43928e-10 1.45698e-09 20)
(8.98294e-10 1.42682e-09 20)
(1.27898e-09 1.44246e-09 20)
(1.60198e-09 1.49564e-09 20)
(1.88557e-09 1.56899e-09 20)
(2.11598e-09 1.65176e-09 20)
(2.27239e-09 1.73737e-09 20)
(2.33273e-09 1.82185e-09 20)
(2.27654e-09 1.90255e-09 20)
(2.08242e-09 1.97645e-09 20)
(1.72813e-09 2.03812e-09 20)
(1.19309e-09 2.07817e-09 20)
(4.29438e-10 2.07893e-09 20)
(-6.80965e-10 1.9958e-09 20)
(-6.71451e-10 1.8406e-09 20)
(3.20555e-10 2.12881e-10 20)
(8.7067e-10 1.89603e-10 20)
(1.28568e-09 1.85351e-10 20)
(1.63092e-09 1.96296e-10 20)
(1.92412e-09 2.14389e-10 20)
(2.15633e-09 2.34848e-10 20)
(2.31039e-09 2.5474e-10 20)
(2.36686e-09 2.72936e-10 20)
(2.30464e-09 2.88775e-10 20)
(2.101e-09 3.00843e-10 20)
(1.73161e-09 3.07348e-10 20)
(1.17161e-09 3.04322e-10 20)
(3.46576e-10 2.85767e-10 20)
(-8.15226e-10 2.2146e-10 20)
(-7.41406e-10 1.51505e-10 20)
(-3.04346e-11 7.04174e-10 20)
(-1.88822e-10 7.00866e-10 20)
(-4.28504e-10 7.02657e-10 20)
(-6.03005e-10 7.11245e-10 20)
(-6.83613e-10 7.25944e-10 20)
(-6.90307e-10 7.45365e-10 20)
(-6.57678e-10 7.68069e-10 20)
(-6.18844e-10 7.9211e-10 20)
(-5.97065e-10 8.15774e-10 20)
(-6.00845e-10 8.37467e-10 20)
(-6.22709e-10 8.55285e-10 20)
(-6.41179e-10 8.68125e-10 20)
(-6.43553e-10 8.73396e-10 20)
(-6.62503e-10 8.7001e-10 20)
(-3.41948e-10 8.60394e-10 20)
(-3.3743e-11 1.97892e-09 20)
(-1.9034e-10 1.97985e-09 20)
(-4.18031e-10 1.99493e-09 20)
(-5.79718e-10 2.02699e-09 20)
(-6.49493e-10 2.07554e-09 20)
(-6.48182e-10 2.13616e-09 20)
(-6.11027e-10 2.20546e-09 20)
(-5.71139e-10 2.27862e-09 20)
(-5.51709e-10 2.35074e-09 20)
(-5.6124e-10 2.41795e-09 20)
(-5.92051e-10 2.47548e-09 20)
(-6.23069e-10 2.51979e-09 20)
(-6.41574e-10 2.5459e-09 20)
(-6.75505e-10 2.55128e-09 20)
(-3.51564e-10 2.53761e-09 20)
(-2.95092e-11 3.05981e-09 20)
(-1.72812e-10 3.07734e-09 20)
(-3.81271e-10 3.11779e-09 20)
(-5.22491e-10 3.18303e-09 20)
(-5.74533e-10 3.27126e-09 20)
(-5.60391e-10 3.37724e-09 20)
(-5.15223e-10 3.49538e-09 20)
(-4.73372e-10 3.61908e-09 20)
(-4.57636e-10 3.74164e-09 20)
(-4.76106e-10 3.8574e-09 20)
(-5.20871e-10 3.96017e-09 20)
(-5.70667e-10 4.04397e-09 20)
(-6.12064e-10 4.10337e-09 20)
(-6.70885e-10 4.13402e-09 20)
(-3.55618e-10 4.13129e-09 20)
(-1.63015e-11 4.03643e-09 20)
(-1.32453e-10 4.07178e-09 20)
(-3.12345e-10 4.1409e-09 20)
(-4.2643e-10 4.24301e-09 20)
(-4.55374e-10 4.37377e-09 20)
(-4.24064e-10 4.52687e-09 20)
(-3.69194e-10 4.69497e-09 20)
(-3.24695e-10 4.86967e-09 20)
(-3.13287e-10 5.04352e-09 20)
(-3.42891e-10 5.2086e-09 20)
(-4.05577e-10 5.35794e-09 20)
(-4.79689e-10 5.4833e-09 20)
(-5.51529e-10 5.5775e-09 20)
(-6.47487e-10 5.63276e-09 20)
(-3.54101e-10 5.63803e-09 20)
(5.75099e-12 4.92124e-09 20)
(-6.83432e-11 4.97431e-09 20)
(-2.09855e-10 5.07293e-09 20)
(-2.89623e-10 5.21256e-09 20)
(-2.90575e-10 5.3864e-09 20)
(-2.3909e-10 5.58629e-09 20)
(-1.72709e-10 5.80322e-09 20)
(-1.24919e-10 6.02779e-09 20)
(-1.18611e-10 6.25085e-09 20)
(-1.61782e-10 6.46401e-09 20)
(-2.46264e-10 6.65794e-09 20)
(-3.50913e-10 6.8234e-09 20)
(-4.62513e-10 6.94973e-09 20)
(-6.10264e-10 7.0245e-09 20)
(-3.50159e-10 7.03127e-09 20)
(3.67686e-11 5.69442e-09 20)
(1.92415e-11 5.76532e-09 20)
(-7.39056e-11 5.89296e-09 20)
(-1.12774e-10 6.0687e-09 20)
(-8.16451e-11 6.28346e-09 20)
(-7.34505e-12 6.52747e-09 20)
(7.21143e-11 6.78945e-09 20)
(1.22939e-10 7.05947e-09 20)
(1.23033e-10 7.32722e-09 20)
(6.41093e-11 7.58329e-09 20)
(-4.63763e-11 7.81737e-09 20)
(-1.87906e-10 8.0181e-09 20)
(-3.50433e-10 8.17084e-09 20)
(-5.66133e-10 8.25898e-09 20)
(-3.47425e-10 8.25851e-09 20)
(7.67427e-11 6.31383e-09 20)
(1.30104e-10 6.4017e-09 20)
(9.35329e-11 6.55565e-09 20)
(1.01066e-10 6.76342e-09 20)
(1.68098e-10 7.01385e-09 20)
(2.66714e-10 7.29488e-09 20)
(3.59286e-10 7.59469e-09 20)
(4.1294e-10 7.90204e-09 20)
(4.05209e-10 8.20656e-09 20)
(3.28372e-10 8.49751e-09 20)
(1.8836e-10 8.76441e-09 20)
(2.36563e-12 8.99226e-09 20)
(-2.21631e-10 9.16378e-09 20)
(-5.22594e-10 9.25748e-09 20)
(-3.5063e-10 9.2408e-09 20)
(1.2473e-10 6.71555e-09 20)
(2.61066e-10 6.81699e-09 20)
(2.87635e-10 6.99122e-09 20)
(3.45428e-10 7.22315e-09 20)
(4.5e-10 7.49967e-09 20)
(5.7359e-10 7.807e-09 20)
(6.79276e-10 8.13266e-09 20)
(7.34806e-10 8.46546e-09 20)
(7.18496e-10 8.79487e-09 20)
(6.22049e-10 9.11032e-09 20)
(4.4838e-10 9.39872e-09 20)
(2.11467e-10 9.64395e-09 20)
(-8.51161e-11 9.8254e-09 20)
(-4.89117e-10 9.91574e-09 20)
(-3.64112e-10 9.87585e-09 20)
(1.78186e-10 6.82133e-09 20)
(4.05774e-10 6.92975e-09 20)
(4.99599e-10 7.11435e-09 20)
(6.09519e-10 7.35817e-09 20)
(7.52042e-10 7.64693e-09 20)
(8.99794e-10 7.96569e-09 20)
(1.01774e-09 8.30159e-09 20)
(1.07506e-09 8.64411e-09 20)
(1.05006e-09 8.98323e-09 20)
(9.3232e-10 9.30802e-09 20)
(7.22182e-10 9.60462e-09 20)
(4.29138e-10 9.85522e-09 20)
(5.01561e-11 1.00366e-08 20)
(-4.72146e-10 1.01164e-08 20)
(-3.90519e-10 1.00498e-08 20)
(2.33151e-10 6.55659e-09 20)
(5.54083e-10 6.66228e-09 20)
(7.16148e-10 6.8434e-09 20)
(8.78015e-10 7.08321e-09 20)
(1.05733e-09 7.36616e-09 20)
(1.22835e-09 7.67757e-09 20)
(1.35779e-09 8.00489e-09 20)
(1.41616e-09 8.33807e-09 20)
(1.38231e-09 8.66786e-09 20)
(1.24353e-09 8.98398e-09 20)
(9.9558e-10 9.27313e-09 20)
(6.43253e-10 9.51551e-09 20)
(1.75932e-10 9.68674e-09 20)
(-4.7572e-10 9.75084e-09 20)
(-4.30578e-10 9.65968e-09 20)
(2.83872e-10 5.87468e-09 20)
(6.92672e-10 5.96548e-09 20)
(9.2062e-10 6.12678e-09 20)
(1.13218e-09 6.34381e-09 20)
(1.3464e-09 6.60119e-09 20)
(1.53872e-09 6.8843e-09 20)
(1.67834e-09 7.18157e-09 20)
(1.73793e-09 7.48382e-09 20)
(1.69598e-09 7.78326e-09 20)
(1.53759e-09 8.07099e-09 20)
(1.25352e-09 8.33393e-09 20)
(8.42661e-10 8.55352e-09 20)
(2.85587e-10 8.70464e-09 20)
(-4.99025e-10 8.74951e-09 20)
(-4.81592e-10 8.64167e-09 20)
(3.23855e-10 4.78284e-09 20)
(8.06278e-10 4.84357e-09 20)
(1.09476e-09 4.96763e-09 20)
(1.35252e-09 5.14328e-09 20)
(1.59782e-09 5.3553e-09 20)
(1.80863e-09 5.58958e-09 20)
(1.95731e-09 5.83547e-09 20)
(2.01804e-09 6.08521e-09 20)
(1.96948e-09 6.33297e-09 20)
(1.79411e-09 6.57111e-09 20)
(1.4782e-09 6.78891e-09 20)
(1.01415e-09 6.96947e-09 20)
(3.71928e-10 7.08777e-09 20)
(-5.38604e-10 7.10804e-09 20)
(-5.38236e-10 6.98662e-09 20)
(3.44511e-10 3.31153e-09 20)
(8.77364e-10 3.32812e-09 20)
(1.22042e-09 3.40147e-09 20)
(1.52004e-09 3.52149e-09 20)
(1.7927e-09 3.67149e-09 20)
(2.0186e-09 3.83874e-09 20)
(2.17398e-09 4.01428e-09 20)
(2.23553e-09 4.19171e-09 20)
(2.18178e-09 4.36716e-09 20)
(1.99352e-09 4.53498e-09 20)
(1.65187e-09 4.68724e-09 20)
(1.14152e-09 4.80915e-09 20)
(4.24064e-10 4.8776e-09 20)
(-6.00271e-10 4.85374e-09 20)
(-6.03014e-10 4.70864e-09 20)
(3.40542e-10 1.44783e-09 20)
(8.96314e-10 1.42312e-09 20)
(1.28813e-09 1.44379e-09 20)
(1.62263e-09 1.50084e-09 20)
(1.91517e-09 1.57736e-09 20)
(2.15133e-09 1.66278e-09 20)
(2.31028e-09 1.75111e-09 20)
(2.37091e-09 1.83813e-09 20)
(2.31274e-09 1.92138e-09 20)
(2.11429e-09 1.99749e-09 20)
(1.75218e-09 2.06072e-09 20)
(1.20432e-09 2.10071e-09 20)
(4.16608e-10 2.09609e-09 20)
(-7.0756e-10 2.01076e-09 20)
(-6.83424e-10 1.86199e-09 20)
(3.19895e-10 2.05998e-10 20)
(8.73507e-10 1.85351e-10 20)
(1.29813e-09 1.83192e-10 20)
(1.65352e-09 1.95448e-10 20)
(1.95455e-09 2.14183e-10 20)
(2.19226e-09 2.34925e-10 20)
(2.34932e-09 2.55203e-10 20)
(2.4058e-09 2.73965e-10 20)
(2.34105e-09 2.90086e-10 20)
(2.13277e-09 3.0236e-10 20)
(1.7551e-09 3.08659e-10 20)
(1.1769e-09 3.05179e-10 20)
(3.34208e-10 2.81138e-10 20)
(-8.34279e-10 2.2278e-10 20)
(-7.51785e-10 1.54419e-10 20)
(-4.99719e-11 6.87847e-10 20)
(-2.4221e-10 6.84376e-10 20)
(-5.06558e-10 6.8645e-10 20)
(-6.98393e-10 6.95599e-10 20)
(-7.90615e-10 7.10851e-10 20)
(-8.04585e-10 7.31134e-10 20)
(-7.74592e-10 7.54888e-10 20)
(-7.34523e-10 7.79871e-10 20)
(-7.08027e-10 8.04667e-10 20)
(-7.02752e-10 8.27576e-10 20)
(-7.10774e-10 8.46526e-10 20)
(-7.10204e-10 8.60677e-10 20)
(-6.8786e-10 8.67936e-10 20)
(-6.73144e-10 8.66621e-10 20)
(-3.37414e-10 8.59537e-10 20)
(-5.34429e-11 1.93496e-09 20)
(-2.43607e-10 1.93592e-09 20)
(-4.95335e-10 1.95204e-09 20)
(-6.73992e-10 1.98664e-09 20)
(-7.5508e-10 2.03734e-09 20)
(-7.60643e-10 2.10137e-09 20)
(-7.25948e-10 2.17444e-09 20)
(-6.84744e-10 2.25109e-09 20)
(-6.60322e-10 2.32717e-09 20)
(-6.60892e-10 2.39826e-09 20)
(-6.77768e-10 2.45982e-09 20)
(-6.88983e-10 2.50838e-09 20)
(-6.8201e-10 2.53911e-09 20)
(-6.81449e-10 2.54977e-09 20)
(-3.44404e-10 2.54118e-09 20)
(-4.91061e-11 2.99862e-09 20)
(-2.25133e-10 3.01672e-09 20)
(-4.55935e-10 3.05943e-09 20)
(-6.13183e-10 3.129e-09 20)
(-6.75788e-10 3.22224e-09 20)
(-6.67676e-10 3.33463e-09 20)
(-6.24968e-10 3.45983e-09 20)
(-5.81698e-10 3.59059e-09 20)
(-5.60862e-10 3.72079e-09 20)
(-5.70102e-10 3.84364e-09 20)
(-6.00747e-10 3.95366e-09 20)
(-6.31014e-10 4.04445e-09 20)
(-6.46652e-10 4.11044e-09 20)
(-6.7107e-10 4.1474e-09 20)
(-3.45818e-10 4.15005e-09 20)
(-3.544e-11 3.96781e-09 20)
(-1.82892e-10 4.00439e-09 20)
(-3.83152e-10 4.07736e-09 20)
(-5.11182e-10 4.1853e-09 20)
(-5.49356e-10 4.32399e-09 20)
(-5.22963e-10 4.48643e-09 20)
(-4.69888e-10 4.66462e-09 20)
(-4.23876e-10 4.85006e-09 20)
(-4.07373e-10 5.03476e-09 20)
(-4.28024e-10 5.2103e-09 20)
(-4.76955e-10 5.36935e-09 20)
(-5.32112e-10 5.50417e-09 20)
(-5.79058e-10 5.60693e-09 20)
(-6.41839e-10 5.66877e-09 20)
(-3.41665e-10 5.67933e-09 20)
(-1.25304e-11 4.85449e-09 20)
(-1.1568e-10 4.90964e-09 20)
(-2.75019e-10 5.01354e-09 20)
(-3.66362e-10 5.16118e-09 20)
(-3.74564e-10 5.34559e-09 20)
(-3.26953e-10 5.55753e-09 20)
(-2.61241e-10 5.78748e-09 20)
(-2.11749e-10 6.02562e-09 20)
(-2.00723e-10 6.26226e-09 20)
(-2.35319e-10 6.48852e-09 20)
(-3.06876e-10 6.69443e-09 20)
(-3.93621e-10 6.87101e-09 20)
(-4.8196e-10 7.00668e-09 20)
(-5.98574e-10 7.0887e-09 20)
(-3.35344e-10 7.09982e-09 20)
(1.97172e-11 5.63851e-09 20)
(-2.38438e-11 5.71243e-09 20)
(-1.31617e-10 5.8463e-09 20)
(-1.79129e-10 6.03231e-09 20)
(-1.52907e-10 6.25999e-09 20)
(-8.10751e-11 6.51822e-09 20)
(-1.89424e-12 6.79577e-09 20)
(5.09104e-11 7.08153e-09 20)
(5.55257e-11 7.36521e-09 20)
(4.33681e-12 7.63646e-09 20)
(-9.43727e-11 7.8845e-09 20)
(-2.20055e-10 8.0972e-09 20)
(-3.61369e-10 8.25974e-09 20)
(-5.48701e-10 8.35458e-09 20)
(-3.30639e-10 8.3576e-09 20)
(6.11954e-11 6.27537e-09 20)
(9.20114e-11 6.36719e-09 20)
(4.49578e-11 6.52869e-09 20)
(4.73365e-11 6.74817e-09 20)
(1.11352e-10 7.01291e-09 20)
(2.08822e-10 7.31034e-09 20)
(3.0197e-10 7.62731e-09 20)
(3.57692e-10 7.95247e-09 20)
(3.54208e-10 8.27434e-09 20)
(2.83967e-10 8.58217e-09 20)
(1.53862e-10 8.86367e-09 20)
(-1.84742e-11 9.1041e-09 20)
(-2.24481e-10 9.28511e-09 20)
(-5.00709e-10 9.38438e-09 20)
(-3.32417e-10 9.36939e-09 20)
(1.11343e-10 6.69801e-09 20)
(2.29379e-10 6.80398e-09 20)
(2.49461e-10 6.98689e-09 20)
(3.05089e-10 7.23126e-09 20)
(4.09173e-10 7.52314e-09 20)
(5.3323e-10 7.84821e-09 20)
(6.40236e-10 8.19251e-09 20)
(6.97943e-10 8.54427e-09 20)
(6.85224e-10 8.89197e-09 20)
(5.93671e-10 9.22449e-09 20)
(4.27553e-10 9.52787e-09 20)
(2.01477e-10 9.78478e-09 20)
(-8.09939e-11 9.97456e-09 20)
(-4.6442e-10 1.0069e-08 20)
(-3.45625e-10 1.00284e-08 20)
(1.6707e-10 6.82453e-09 20)
(3.80701e-10 6.93758e-09 20)
(4.72236e-10 7.13141e-09 20)
(5.83682e-10 7.38822e-09 20)
(7.28301e-10 7.69265e-09 20)
(8.78195e-10 8.02914e-09 20)
(9.98027e-10 8.38419e-09 20)
(1.05714e-09 8.74565e-09 20)
(1.03443e-09 9.10297e-09 20)
(9.19875e-10 9.44425e-09 20)
(7.14249e-10 9.75538e-09 20)
(4.28307e-10 1.00165e-08 20)
(5.9584e-11 1.02045e-08 20)
(-4.4697e-10 1.02863e-08 20)
(-3.72961e-10 1.0217e-08 20)
(2.24396e-10 6.57602e-09 20)
(5.36264e-10 6.68641e-09 20)
(7.00107e-10 6.87695e-09 20)
(8.66428e-10 7.12924e-09 20)
(1.05018e-09 7.42753e-09 20)
(1.22477e-09 7.75582e-09 20)
(1.35675e-09 8.10106e-09 20)
(1.41672e-09 8.45215e-09 20)
(1.38372e-09 8.7991e-09 20)
(1.24598e-09 9.13059e-09 20)
(9.99913e-10 9.43237e-09 20)
(6.50607e-10 9.68419e-09 20)
(1.88745e-10 9.86021e-09 20)
(-4.51971e-10 9.92459e-09 20)
(-4.15018e-10 9.82918e-09 20)
(2.77556e-10 5.90297e-09 20)
(6.81822e-10 5.99856e-09 20)
(9.15067e-10 6.16836e-09 20)
(1.13408e-09 6.39698e-09 20)
(1.35488e-09 6.66812e-09 20)
(1.55181e-09 6.9666e-09 20)
(1.69446e-09 7.27961e-09 20)
(1.75518e-09 7.59771e-09 20)
(1.71267e-09 7.91213e-09 20)
(1.55295e-09 8.21307e-09 20)
(1.26786e-09 8.48666e-09 20)
(8.56241e-10 8.71369e-09 20)
(3.0008e-10 8.86802e-09 20)
(-4.77996e-10 8.91271e-09 20)
(-4.6847e-10 8.79854e-09 20)
(3.19895e-10 4.81243e-09 20)
(8.01564e-10 4.87768e-09 20)
(1.09853e-09 5.00892e-09 20)
(1.36609e-09 5.19484e-09 20)
(1.61971e-09 5.41808e-09 20)
(1.83626e-09 5.66462e-09 20)
(1.98795e-09 5.92333e-09 20)
(2.04924e-09 6.1858e-09 20)
(1.99899e-09 6.44516e-09 20)
(1.82052e-09 6.69377e-09 20)
(1.50044e-09 6.91994e-09 20)
(1.03187e-09 7.10595e-09 20)
(3.87673e-10 7.22719e-09 20)
(-5.21643e-10 7.24407e-09 20)
(-5.29288e-10 7.11916e-09 20)
(3.42801e-10 3.33736e-09 20)
(8.78401e-10 3.3582e-09 20)
(1.23222e-09 3.43767e-09 20)
(1.54315e-09 3.56524e-09 20)
(1.82467e-09 3.72353e-09 20)
(2.05706e-09 3.89907e-09 20)
(2.21563e-09 4.08348e-09 20)
(2.27701e-09 4.26958e-09 20)
(2.22064e-09 4.45305e-09 20)
(2.02784e-09 4.62803e-09 20)
(1.68014e-09 4.78576e-09 20)
(1.16349e-09 4.91181e-09 20)
(4.38202e-10 4.97989e-09 20)
(-5.86031e-10 4.95669e-09 20)
(-5.93384e-10 4.80557e-09 20)
(3.40735e-10 1.4715e-09 20)
(9.01971e-10 1.45038e-09 20)
(1.30557e-09 1.47536e-09 20)
(1.65195e-09 1.53665e-09 20)
(1.95372e-09 1.61754e-09 20)
(2.19621e-09 1.70747e-09 20)
(2.35847e-09 1.80006e-09 20)
(2.419e-09 1.89132e-09 20)
(2.35744e-09 1.97834e-09 20)
(2.15313e-09 2.05791e-09 20)
(1.78432e-09 2.1241e-09 20)
(1.22619e-09 2.16483e-09 20)
(4.32738e-10 2.16096e-09 20)
(-6.95779e-10 2.0745e-09 20)
(-6.80318e-10 1.92073e-09 20)
(3.21678e-10 2.1807e-10 20)
(8.82168e-10 1.98919e-10 20)
(1.3184e-09 1.98268e-10 20)
(1.68542e-09 2.11844e-10 20)
(1.99557e-09 2.31732e-10 20)
(2.23949e-09 2.53695e-10 20)
(2.3994e-09 2.75015e-10 20)
(2.45548e-09 2.94719e-10 20)
(2.38732e-09 3.115e-10 20)
(2.1735e-09 3.24506e-10 20)
(1.78706e-09 3.31864e-10 20)
(1.20035e-09 3.27245e-10 20)
(3.4778e-10 3.06118e-10 20)
(-8.26256e-10 2.42475e-10 20)
(-7.47058e-10 1.75735e-10 20)
(-7.24958e-11 6.70688e-10 20)
(-3.03675e-10 6.67577e-10 20)
(-5.9707e-10 6.69947e-10 20)
(-8.10786e-10 6.79748e-10 20)
(-9.18088e-10 6.96143e-10 20)
(-9.40239e-10 7.17562e-10 20)
(-9.12423e-10 7.42627e-10 20)
(-8.69247e-10 7.69029e-10 20)
(-8.34274e-10 7.95419e-10 20)
(-8.14947e-10 8.19661e-10 20)
(-8.03432e-10 8.40402e-10 20)
(-7.78174e-10 8.56044e-10 20)
(-7.2558e-10 8.65099e-10 20)
(-6.72012e-10 8.66235e-10 20)
(-3.25719e-10 8.61414e-10 20)
(-7.5607e-11 1.88962e-09 20)
(-3.04511e-10 1.8915e-09 20)
(-5.84993e-10 1.90924e-09 20)
(-7.8459e-10 1.94638e-09 20)
(-8.80274e-10 2.00087e-09 20)
(-8.93755e-10 2.06942e-09 20)
(-8.60955e-10 2.14709e-09 20)
(-8.1655e-10 2.22883e-09 20)
(-7.83737e-10 2.31019e-09 20)
(-7.70058e-10 2.38619e-09 20)
(-7.67049e-10 2.45284e-09 20)
(-7.53383e-10 2.50611e-09 20)
(-7.15295e-10 2.54203e-09 20)
(-6.75698e-10 2.55768e-09 20)
(-3.30635e-10 2.55381e-09 20)
(-7.06189e-11 2.93612e-09 20)
(-2.84061e-10 2.95564e-09 20)
(-5.42092e-10 3.00202e-09 20)
(-7.19062e-10 3.07697e-09 20)
(-7.95055e-10 3.17729e-09 20)
(-7.94013e-10 3.29805e-09 20)
(-7.53006e-10 3.43202e-09 20)
(-7.0624e-10 3.57221e-09 20)
(-6.77009e-10 3.71166e-09 20)
(-6.72488e-10 3.84345e-09 20)
(-6.83613e-10 3.96167e-09 20)
(-6.88991e-10 4.06048e-09 20)
(-6.73907e-10 4.13383e-09 20)
(-6.60043e-10 4.17654e-09 20)
(-3.29597e-10 4.1839e-09 20)
(-5.59971e-11 3.89785e-09 20)
(-2.3852e-10 3.9366e-09 20)
(-4.63661e-10 4.01503e-09 20)
(-6.09322e-10 4.13118e-09 20)
(-6.59289e-10 4.28043e-09 20)
(-6.39114e-10 4.45485e-09 20)
(-5.86789e-10 4.64576e-09 20)
(-5.36916e-10 4.8445e-09 20)
(-5.12403e-10 5.04183e-09 20)
(-5.20139e-10 5.22981e-09 20)
(-5.50213e-10 5.40036e-09 20)
(-5.81222e-10 5.54546e-09 20)
(-5.99324e-10 5.65681e-09 20)
(-6.25632e-10 5.72562e-09 20)
(-3.23187e-10 5.74053e-09 20)
(-3.18661e-11 4.78651e-09 20)
(-1.66971e-10 4.84468e-09 20)
(-3.47605e-10 4.95574e-09 20)
(-4.53754e-10 5.11376e-09 20)
(-4.71487e-10 5.31155e-09 20)
(-4.28594e-10 5.53895e-09 20)
(-3.63349e-10 5.78493e-09 20)
(-3.10266e-10 6.03976e-09 20)
(-2.91698e-10 6.29232e-09 20)
(-3.13952e-10 6.53378e-09 20)
(-3.67969e-10 6.7542e-09 20)
(-4.3255e-10 6.94248e-09 20)
(-4.93839e-10 7.08813e-09 20)
(-5.76414e-10 7.17759e-09 20)
(-3.14688e-10 7.1924e-09 20)
(2.17274e-12 5.58062e-09 20)
(-6.92947e-11 5.65859e-09 20)
(-1.94492e-10 5.80133e-09 20)
(-2.53506e-10 5.99969e-09 20)
(-2.34098e-10 6.24293e-09 20)
(-1.65459e-10 6.51897e-09 20)
(-8.58833e-11 6.81548e-09 20)
(-2.96121e-11 7.12057e-09 20)
(-1.84829e-11 7.4231e-09 20)
(-5.82597e-11 7.71216e-09 20)
(-1.41319e-10 7.97605e-09 20)
(-2.47292e-10 8.20185e-09 20)
(-3.64211e-10 8.37485e-09 20)
(-5.21171e-10 8.47649e-09 20)
(-3.08282e-10 8.48213e-09 20)
(4.61022e-11 6.23388e-09 20)
(5.38287e-11 6.3307e-09 20)
(-6.50521e-12 6.50201e-09 20)
(-1.21576e-11 6.73572e-09 20)