/*--------------------------------*- C++ -*----------------------------------*\
| =========                 |                                                 |
| \\      /  F ield         | OpenFOAM: The Open Source CFD Toolbox           |
|  \\    /   O peration     | Version:  v2012                                 |
|   \\  /    A nd           | Website:  www.openfoam.com                      |
|    \\/     M anipulation  |                                                 |
\*---------------------------------------------------------------------------*/
FoamFile
{
    version     2.0;
    format      ascii;
    class       volScalarField;
    location    "0.026";
    object      p;
}
// * * * * * * * * * * * * * * * * * * * * * * * * * * * * * * * * * * * * * //

dimensions      [1 -1 -2 0 0 0 0];


internalField   nonuniform List<scalar> 
449343
(
102210
102382
102681
103013
103233
103177
102581
101377
99603.5
97452.6
95210.1
93152.7
91481.3
90316.1
89720.4
102191
102364
102663
102994
103214
103155
102557
101354
99580.3
97430.6
95188.7
93130.8
91458.2
90291.9
89695.5
102173
102346
102645
102976
103194
103131
102530
101325
99553.1
97406.1
95165.9
93107.1
91431.7
90262.9
89665
102155
102328
102628
102957
103173
103102
102498
101291
99521
97378.1
95141.3
93081
91401.2
90228.2
89628.1
102136
102309
102609
102937
103149
103070
102461
101251
99484.3
97345.4
95112.2
93049.8
91364.3
90185.9
89582.8
102114
102288
102587
102913
103120
103034
102418
101206
99439.9
97305.2
95073.8
93008.7
91316.7
90132.5
89526.4
102088
102261
102560
102883
103085
102991
102368
101150
99383.5
97251
95018
92951.3
91253.5
90064.6
89456.1
102056
102228
102525
102844
103041
102940
102308
101083
99309.6
97176
94940.8
92871.4
91170.6
89979.9
89370.6
102018
102189
102482
102796
102988
102879
102241
101006
99224.2
97079.6
94838.7
92767.8
91068.4
89879.4
89271
101976
102144
102432
102741
102928
102812
102165
100921
99124.9
96966.6
94720.3
92646.8
90951.9
89767.7
89162
101931
102096
102380
102683
102865
102743
102088
100831
99021.1
96848.5
94593.7
92520.1
90831
89652.9
89050.7
101887
102050
102328
102625
102803
102676
102014
100746
98922.2
96737.2
94473.4
92399.8
90716.4
89544.2
88945.5
101846
102007
102281
102574
102747
102617
101947
100672
98836.5
96640.7
94369.7
92296.3
90617.4
89450.1
88854.3
101811
101970
102242
102530
102700
102567
101893
100612
98768.5
96565.3
94290
92216.9
90541.2
89377.2
88783.3
101784
101942
102212
102498
102666
102532
101855
100570
98723.1
96516.3
94239.2
92166.4
90492.2
89329.8
88736.9
102018
102239
102639
103129
103545
103713
103268
102025
100017
97536
94993.2
92727.5
90934.7
89707.3
89086.1
102000
102221
102622
103111
103527
103691
103244
101999
99992.9
97513.8
94971.9
92705.5
90911.3
89682.7
89060.8
101982
102204
102606
103095
103509
103668
103215
101970
99966.3
97492.5
94952.7
92683.7
90885.3
89653.5
89029.9
101965
102188
102591
103081
103492
103640
103180
101931
99933.9
97471.1
94937.3
92663.3
90856.9
89619.2
88992.8
101947
102171
102576
103066
103473
103606
103140
101890
99890
97447.5
94922.4
92641.5
90823.7
89577.9
88947.6
101927
102152
102559
103049
103451
103575
103098
101848
99854.9
97416.2
94899.8
92611.8
90780.9
89525.6
88891.2
101902
102128
102536
103024
103419
103541
103054
101794
99804.1
97373.4
94865.9
92564.6
90720.3
89458.2
88820.2
101871
102096
102502
102988
103377
103492
102992
101679
99723.1
97297
94792
92485.3
90635.9
89371.7
88732.7
101834
102057
102460
102939
103322
103431
102925
101645
99637.2
97194.8
94678.7
92373.2
90528.3
89266.8
88629.6
101792
102012
102408
102880
103259
103357
102843
101553
99524.4
97061.7
94529.2
92233.4
90402
89148.6
88515.7
101747
101963
102352
102815
103188
103281
102763
101456
99402.9
96923.4
94376.8
92087.2
90269.6
89027
88399.3
101703
101916
102298
102753
103119
103215
102686
101364
99303.1
96793.6
94233.2
91950
90144.9
88912.1
88289.3
101663
101872
102248
102697
103058
103153
102620
101290
99210.8
96682.7
94112.8
91834.1
90038.4
88813.1
88194.2
101628
101835
102207
102651
103007
103100
102563
101225
99135.6
96596.6
94022.3
91747.1
89957.3
88736.9
88120.6
101600
101806
102177
102617
102972
103063
102523
101182
99086.6
96542.8
93966.7
91693
89906.1
88688
88072.9
101538
101869
102501
103362
104276
105010
105025
103680
101047
97698.7
94414.6
91669.9
89609.5
88247.3
87571.7
101520
101851
102484
103346
104260
104989
104997
103649
101018
97673.5
94391.6
91646.3
89584.5
88221.3
87545.1
101503
101836
102472
103336
104249
104972
104962
103617
100987
97657.3
94377.9
91626.3
89557.8
88190.6
87512.6
101487
101822
102463
103333
104246
104949
104914
103582
100945
97655.3
94390.5
91619.5
89532.8
88156.1
87474.2
101471
101810
102457
103333
104240
104911
104820
103479
100874
97669.2
94410.5
91617.7
89507
88115.9
87428
101453
101796
102452
103333
104238
104880
104774
103450
100861
97670.7
94446.1
91615.5
89472.4
88065.1
87370.3
101431
101777
102436
103327
104216
104865
104737
103408
100825
97642
94505
91589.9
89419.8
87997.2
87296.6
101403
101749
102408
103299
104183
104835
104709
103277
100741
97564.8
94432.1
91509.3
89331.9
87906.1
87203.9
101368
101711
102365
103247
104121
104758
104605
103248
100640
97447.7
94299.5
91380.6
89211.4
87791.2
87092.4
101328
101665
102310
103172
104045
104672
104512
103135
100492
97280.7
94030.3
91195.5
89059.2
87658.5
86967.9
101284
101615
102246
103094
103952
104595
104433
103014
100326
97079.5
93797.2
91002.6
88901.9
87521.4
86840
101241
101565
102184
103017
103867
104530
104393
102961
100229
96884.3
93594.6
90826.6
88754.5
87392.7
86719.6
101201
101521
102130
102950
103790
104460
104334
102871
100133
96734.5
93427.9
90681.1
88631.3
87282.9
86616.1
101167
101483
102086
102898
103729
104396
104272
102793
100042
96620.6
93311.3
90576.9
88539.8
87199.6
86536.8
101140
101455
102055
102862
103688
104353
104228
102743
99984.1
96555.4
93245.3
90515.5
88483.7
87147.3
86486.3
100636
101127
102106
103556
105358
107196
108440
106921
102898
97734.7
93172.9
89734.7
87336.2
85822.2
85092.5
100617
101109
102090
103543
105345
107176
108398
106872
102847
97691.3
93139.9
89702.8
87305.3
85792.4
85063
100600
101094
102081
103542
105349
107170
108356
106836
102815
97677.3
93116.6
89674.6
87272
85756.7
85026.3
100584
101083
102081
103561
105373
107186
108196
106839
102756
97793.5
93192.9
89680.6
87246.4
85718.9
84983.8
100569
101074
102086
103584
105421
107142
107313
106417
103385
97926
93293.8
89711.1
87224.6
85676.3
84933.7
100554
101068
102106
103650
105477
106311
107214
106399
103438
99110.4
93484.6
89756.8
87201.1
85622.2
84871.1
100535
101055
102104
103670
104812
106336
107173
106362
103417
99130.7
94680.1
89744
87149
85550.3
84790.8
100510
101034
102088
103655
104778
106330
107171
106228
103360
99080.5
94590.8
89657.3
87059.9
85453.1
84688.3
100480
100998
102043
103602
104731
106261
107075
106209
103259
98951.9
94465.8
89508.3
86915.1
85321.4
84565.9
100443
100952
101979
103507
105314
106138
106970
106105
103093
98751.9
92976.3
89267.9
86732.2
85169.5
84427.4
100403
100901
101898
103372
105160
106819
106958
105981
102894
97222.2
92561.3
88997
86538.6
85014.4
84285.3
100364
100852
101828
103273
105026
106754
107628
106122
101876
96837.9
92232.2
88755.6
86362.8
84868.5
84151.5
100328
100809
101769
103188
104920
106635
107687
105978
101789
96552.4
91977.7
88571.9
86219.5
84745.4
84037.3
100296
100773
101723
103125
104841
106548
107608
105869
101653
96378.9
91822.1
88447.3
86115.9
84653.4
83950.9
100271
100745
101690
103086
104794
106499
107565
105811
101586
96298.6
91742.8
88377.7
86054.4
84597
83896.9
99112.7
99775.7
101150
103337
106421
110367
114531
112436
105785
97031.4
90598.4
86509.3
83896.3
82336
81612.8
99091.9
99756
101133
103325
106411
110345
114470
112363
105673
96918.6
90523.9
86452.6
83851
82298
81577.9
99070.9
99738
101122
103328
106437
110364
114435
112284
105591
96824.9
90453.4
86390.2
83798.2
82251.1
81532.9
99050.9
99724.1
101125
103386
106590
110505
112095
112330
107051
97341.7
90641.6
86404.5
83760.4
82203.4
81482
99028.3
99708.6
101138
103448
106715
108982
112094
112291
107190
99521.5
90863.3
86438.8
83730.3
82149.6
81422.5
99012.7
99710.8
101191
103658
105842
109167
112160
112236
107256
99810
93040.2
86551.4
83685.2
82088
81349.2
98988.7
99686.5
101167
103047
105881
109277
111189
111515
107521
100799
93290
88365.2
83586.1
81988.1
81253.5
98971.1
99675.8
101218
103028
105904
109290
111210
111500
107560
100843
93342.5
88354.9
83580
81872.4
81142.2
98945.5
99642.5
101124
102986
105855
109234
111132
111428
107429
100703
93152.9
88187.3
83321.4
81732.5
81004.7
98922.6
99615.7
101087
103544
105714
109057
111056
111272
107177
99436.2
92655.7
85972.5
83146.7
81579.6
80856.7
98894.4
99569
100986
103274
106492
108781
111765
111730
106508
98916.8
89929.5
85581.9
82940
81405.7
80702.4
98867.6
99531.9
100914
103144
106294
110108
111623
111654
106271
96067.8
89434.9
85298
82741.6
81246.9
80557.5
98841.4
99497.1
100856
103022
106060
109832
113771
111421
104315
95356.9
89030
85075
82584.8
81113.4
80434.4
98816.8
99467.1
100814
102955
105952
109703
113660
111263
104106
95131.3
88843.5
84940.3
82474.3
81014.9
80342
98794.8
99442.7
100784
102916
105900
109642
113614
111186
104024
95031.8
88754.5
84867.4
82410.5
80955.7
80285.2
96715.3
97499.3
99186.7
102065
106616
113823
119927
126395
114206
93641.9
85537.6
81445.4
79009.3
77683.8
77108.3
96690.2
97474.8
99163.7
102047
106610
113800
119864
126195
113806
93206.4
85336.1
81323.4
78935.1
77632.5
77065.3
96659.6
97445
99137.5
102025
106611
113815
119797
125963
113360
92765.4
85084.7
81166.9
78841.7
77565.9
77008.2
96628.7
97420.9
99130.1
102072
106975
111672
119897
125968
113176
97006.7
85177.5
81044.1
78765.3
77501.3
76945
96585.6
97377.1
99093.4
102138
105777
111950
120195
123506
114506
97962.6
88549.6
81019.7
78654.1
77417.5
76870.3
96560.9
97345.9
99146.8
101763
105921
111069
118429
122567
114830
100417
88910
83505.6
78550
77308
76777.4
96524
97299.2
99134.1
101808
106081
111107
117565
122648
115449
101606
90744.9
83608
78420.1
77165.4
76658.7
96499.8
97259.8
99167.7
101861
105447
110634
117636
122741
115612
101768
90776.5
83571.9
80328.7
76987.7
76527.6
96495.3
97269.4
99101.3
101811
105422
111088
117616
122714
115548
101634
90588.3
83332.9
78089.7
76878.3
76384.4
96498.4
97282.5
99081
101681
105978
111037
117459
122505
115134
101114
90170.9
83005.4
77933.5
76742.3
76235.9
96493.8
97280.8
98990.9
102022
105665
111895
118117
123115
113972
99222.3
87738.1
79972.6
77742.5
76586
76078.8
96494.9
97281.4
98977.9
101905
106788
111457
119557
125278
111993
95773.2
83669.1
79723.8
77597.5
76435.3
75929.4
96487.9
97265.4
98939.1
101796
106344
113443
119258
124966
111686
90673.3
83274.3
79587.4
77450.2
76298.3
75801.5
96477.2
97251.1
98916
101759
106264
113317
119121
124835
111531
90546.6
83151.6
79490
77347.5
76199.4
75706.1
96461.9
97234
98894.3
101726
106210
113254
119072
124779
111467
90477.8
83078.6
79429.1
77287.3
76139.9
75647.8
93221.4
93975.9
95651
98675.9
103763
110808
127552
158647
122396
88393.9
75885.3
73698.6
72428.9
71883.5
71676.5
93190.3
93944.8
95616.6
98637.6
103729
110772
127470
158367
120262
87179.9
75423.2
73470.6
72316.5
71816.1
71625.1
93144.1
93888.6
95552
98547
103600
110724
127312
158026
118523
86039.2
74949.4
73207.4
72177.3
71727.2
71557
93090.7
93832.6
95484.3
98323.6
103049
111090
127256
157713
117804
85757.2
78385.7
72840.9
72047.8
71636.6
71483.6
93013.9
93727.5
95279.5
98447.1
103068
110226
124405
157598
119449
90059.9
78394.1
75257.1
71817.1
71525
71395.2
92942.7
93582
95812.6
98501.1
102850
110217
123053
152740
124754
92811.9
81085.6
75257.1
73656.1
71354.5
71286.4
92900
93532.4
95811
98499.9
102887
109856
123065
152938
125358
93780.9
82810.7
77075.1
73600.2
71243.7
71171.7
92860.2
93492.7
95866.3
98528.4
102895
109871
123144
153262
126294
94607.9
83129.5
77091.7
73530.6
71121.3
71019.6
92891.2
93525.9
95808.8
98538.6
102913
109885
123198
153431
126617
94526.3
82889.8
76865.8
73285.1
70937.4
70878.9
92915.9
93554.1
95797.6
98455.6
102886
109877
123187
153267
125426
93099.3
82025.7
76373.1
73025.3
70751
70711.6
92970.7
93686.3
95245
98397.4
103042
110261
123155
152883
123095
91081.4
79716.1
74125.3
70788.1
70623.3
70550.8
93021.8
93760.4
95409.2
98252.8
102858
110946
124407
157492
116284
87936.3
76565.1
71306.6
70752.3
70486.3
70401
93045.4
93789
95444.2
98425.9
103481
110583
127140
157422
115833
83160.1
72713.5
71382.4
70636.5
70358.7
70269.9
93056.5
93804.6
95465.7
98468.9
103548
110542
127120
157404
115755
82990.9
72707.2
71337.9
70551.1
70264.2
70172.4
93050.1
93798.5
95459.3
98461
103529
110486
127102
157375
115812
82975.8
72699.4
71308.9
70498.6
70205.6
70113
88568.8
89039.9
90075.9
91943
94941.8
101758
109052
105667
61074.6
61596.7
61699.9
63319.2
64503.7
65320
65699.1
88533
89001.2
90032
91887.5
94892.6
101700
109019
105698
42208.9
58819.7
60907.5
62988.6
64360.3
65242.3
65644.5
88476.2
88930.6
89948.3
91805.5
94764
101574
108913
105714
32719.4
56724.8
60292.2
62742.9
64226.9
65157.1
65581.4
88401.8
88826.2
89817
91510
96123
101142
108617
105509
29185.3
56222
61743.9
62775.6
64167
65089.1
65527.2
88298.3
88684.6
89583.7
92710.7
95858.8
101595
109404
105112
36048.3
60788.1
63806.7
64367.3
64188.9
65051.7
65473
88182.4
88547.2
90798.8
92597.7
96376.3
101868
109209
104719
42354.3
62951.7
65654.8
64663
65570.8
65041.2
65406.8
88146.5
88499.6
90779.5
92523.1
96654.9
101834
109185
104813
47203.9
66178.4
66906.5
66101
65563.7
65013.9
65340.6
88128.2
88470.4
90747.6
93208.2
96665.4
101849
109257
105021
55722.4
68710.1
67656.4
66964.4
65519.6
64922.5
65212.2
88155.5
88509.6
90753.5
93203.8
96679.1
101887
109355
105300
62290
68390.8
67235.8
66684.3
65267.7
64707.9
65049.3
88199
88565.3
90801.4
92558.2
96683.7
101934
109453
105597
49159.4
64382.6
65686.1
65273.8
64938.1
64438
64833.2
88314.6
88704.6
89612.8
92670.1
96440.8
101989
109559
105853
27911.7
59695.7
63807.1
63254.9
63155.1
64146
64620
88408.1
88835.5
89835.2
91542.8
96064.8
100958
108609
106134
24867.1
55541.8
59696.6
61188.8
62835.5
63920.5
64430.4
88463.8
88920.1
89943.5
91814.1
94798.3
101421
108925
106201
24163.7
53002
57871.5
60808.4
62636.5
63761.6
64274.6
88493.3
88961.4
89993.4
91853.5
94882.4
101669
109072
106276
24145.1
52914.6
57804.2
60716.7
62523.7
63651
64164.5
88495.4
88965.6
90001.1
91871.3
94894.2
101701
109104
106295
24553.6
53089.9
57893.3
60697.2
62466.6
63588.5
64100.6
83025.3
82977.3
82858.3
82674.4
82764.7
87024.1
90760.9
103765
30857.1
36740.1
46939.4
52837.4
56675.8
58931.1
59944.9
82991.6
82940
82817.6
82628.4
82729.9
86958.7
90701.1
103544
4868.42
35070.7
46264.9
52531.8
56539.5
58857.9
59896
82942.2
82881.1
82751
82593.9
82673.4
86832.1
90575.6
103446
2997.84
34203.2
45964.2
52390.6
56459.3
58809.2
59857.6
82882.2
82792.1
82658.1
82650.6
85499.3
86758
90333.4
103285
4950.89
34068.4
46390.9
52612.6
56512.1
58819.6
59853.5
82808.8
82696.5
82619.5
84695
85516.9
88582.6
91378.2
103236
2300.88
34507.7
47474.7
53751.4
56734.6
58905.9
59879.5
82733.2
82687.2
84275.1
84623.2
86781.7
89379.6
91266.1
102888
2489.3
36190.8
48728.4
54088.3
57641.7
59018.4
59902.8
82727
82684.9
84209.9
84603.8
87447.8
89321.2
91230.6
102866
40791.4
41002.1
50135.8
54940.4
57732.5
59029.1
59878
82729.5
82679.3
84175.7
85637.8
87435.4
89324.1
91262.9
102887
35799
43239.6
50917.1
55433.4
57695.1
58948.5
59768.3
82760.7
82719.1
84194.7
85646.1
87461.5
89366.7
91333
103025
24039.4
41311
50352.1
55157.4
57472.9
58734.6
59602.4
82796.5
82751
84252.6
84690
87507.4
89440.3
91425.7
103153
2289.04
37331.9
48807.6
54150.2
57121.9
58443.6
59361.9
82893.1
82786
82715.5
84716.9
86925.9
89558.1
91536.6
103269
6067.18
34339.9
47162.8
52760.9
55761.9
58057.2
59071.7
82974.3
82889.8
82769.5
82774.1
85664.2
87049.5
90750.7
103610
6016.32
32615.2
45062.4
51231.8
55286.3
57723.8
58812.4
83027.7
82971.1
82850.5
82708.3
82811.7
86932
90665.4
103579
2491.22
32026.3
44030.8
50711.6
55000.1
57495.4
58613.8
83058
83009.3
82892.8
82711.8
82834.3
87008.9
90801.2
103687
2623.99
31876.5
43872.3
50524
54836.5
57351.3
58481.5
83061.8
83016
82901.6
82723.9
82832.3
87063.8
90862.3
103741
2979.66
31951.7
43944.3
50474.5
54765
57280.1
58409.9
77279.8
76656.1
75371.4
73364.6
73196.3
72490.4
75273.9
8293.94
25609.8
38007.6
45614.8
50846.5
53979
55433.7
77253.9
76627
75339.1
73330
73141.7
72403.5
75162.8
2309.54
25401.6
37706.5
45455.2
50756.1
53924.1
55395.5
77225.5
76597.3
75295.8
73280.5
73130.1
72329.3
75007.8
2296.69
24874
37678.7
45399.6
50720.5
53905.9
55377.8
77209.5
76574.7
75252.2
73424.8
73413.2
72225.2
74798
2296.73
24697.5
36953.6
45619.8
50786.7
53949
55399.5
77209.9
76572.9
75406.9
75503.6
74002.3
74288.3
75447.5
2297.16
22544.2
36741.3
45646.3
50945.6
54049.8
55453.9
77220.1
76713.2
76981.1
75785.4
75409.6
75260.8
75401.9
2268.89
22608.7
37017
45861.8
51168
54086.5
55500.8
77255.1
76760
76939.1
75890.2
76223.5
75308.4
75409.4
2599.64
24244.9
37829.2
46080.9
51271.3
54066.6
55476.5
77280.6
76793.6
76943.6
76837
76337.4
75348.5
75442.1
2299.39
26029.9
38379.8
46274.9
51210.4
53993.6
55379.4
77318.6
76827
76971.6
76878.1
76372.7
75389.4
75490.8
22169.8
25809.1
38124.3
46091.5
51049
53823.4
55234.4
77337.4
76828.6
77034.7
75992.4
76323.3
75424.4
75547.6
4324.19
24014.6
37230.8
45567.6
50793.3
53604.8
55024.7
77372.9
76744.9
75588.8
75660
75529.6
75426.7
75605.3
5260.41
22780.1
36303.1
45010.4
50198.5
53328.6
54742.9
77398.7
76771.4
75468.8
73644.3
73711.8
72566.7
74778.1
2300.44
22733.7
36122.8
44602.3
49797.2
53008.2
54477.2
77420.7
76798.3
75505.7
73496.4
73343.2
72485.9
75098.9
2298.07
23541.5
36396.9
44147.8
49523.3
52765.8
54269.7
77437.6
76814.8
75531.8
73516.7
73348.1
72538.6
75233.8
2298.02
23646.3
36170.3
43965.7
49357.5
52612.7
54130.8
77437.5
76816.5
75534.4
73517.3
73309.4
72567.5
75313.2
2302.58
23754.2
36174.4
43890.2
49281.7
52537.5
54056.1
72225.5
71053.7
68613.7
64426
62420.3
55641.8
52309.3
5056.07
2286.82
23745.4
34465.5
42500.8
48008.4
51377.8
52990.8
72203.7
71027.3
68575.9
64365.4
62339.1
55447.4
51821.7
2287.01
2297.96
23052.9
34215.6
42412.2
47944.3
51336.9
52960.1
72185.3
71007.1
68528
64259.9
62260.3
55275.6
51571.7
2261.25
2292.89
19521.9
34317.1
42350.9
47917.2
51323.5
52945.6
72191.7
71015.8
68455.7
64223.5
62200.7
55111.1
51470.2
2267.92
2301.74
19744.2
32239.1
42392.5
47938.3
51351.5
52958.3
72234.8
71042.9
68456.8
67216.6
62074.9
57925.7
53301.5
2284.96
2322.25
17604.7
31183.9
41165.6
47996.4
51425
52993.4
72296.6
71139.1
70484.5
67161.7
64016.5
59231.5
53394.1
2488.02
2280.96
17325.3
30780.2
41236.7
47296.1
51437.7
53032.9
72346.4
71175.9
70497.4
67096.6
64900.6
59272.8
53449.9
2205.92
2307.28
17784.4
31117.4
40745
47351.8
51402.8
52999.7
72389.8
71231.9
70527.8
68502.6
64956.5
59325.4
53489.8
2478.65
2298.11
18455.1
31416.8
40571.7
47315.8
51340.7
52917.5
72444.6
71280.3
70580.7
68566.7
65007.3
59374.5
53533.4
3247.47
2639.83
19035.4
31411.4
40485.7
47212.7
51210.3
52796.7
72478
71321
70661.1
67288.7
65069.8
59414.7
53572.8
3870.93
2305.89
18408.9
31029.7
40491.8
47042.9
51051.2
52630
72490.3
71310.3
68749
67474.1
64273.5
59442.9
53587.9
2883.7
2279.22
17828.5
30573.7
40744.8
47413.3
50833.9
52389.9
72493.5
71328.9
68794.3
64566.8
62458.1
55389.3
51727.5
2638.63
2253.3
18240.5
31665
41639.2
47154.2
50566.6
52166.3
72505.6
71337
68873.2
64612.6
62519.2
55468.3
51729.1
2390.57
2296.56
18859.5
33477.8
41405
46957.5
50363.9
51989.1
72519.7
71350.7
68910
64694.9
62621.4
55600.1
51838
2298.07
2295.93
21622
33201.1
41282.3
46822.3
50233.4
51867.7
72518.9
71352.6
68918.8
64717.8
62652.2
55705.2
52005.8
2279.3
2297.62
21832.2
33215.1
41213.5
46760.7
50165.1
51799.7
68685.3
67049.2
63594.5
57602.3
47422.2
38956.1
16873.6
2297.73
2296.86
24611.8
34503.6
42646.3
48026.4
51322.4
52904.2
68659.3
67015.6
63538.4
57501.6
47257.6
38645.2
16109.1
2263.11
2303.4
23511.2
34417
42553.1
47961.8
51283.9
52874.4
68633.8
66985.3
63478.2
57395.5
47160.9
38262.9
15926.8
2255.31
2300.18
19213.4
34346.6
42457.9
47916.7
51256.7
52852.2
68629
66990.3
63387.7
57297.2
51781.8
37963.5
15842.4
2262.12
2316.44
18885.4
31073.4
42348.3
47870.7
51243.8
52844.6
68665.9
67025.6
63398.4
60163.8
51802.7
41790.2
22257.4
2295.33
2289.26
16153.2
29537.8
40066.7
47842.4
51279.7
52851.6
68740.2
67076.2
65323.5
60173.1
54092.7
43662.3
23141.9
2300.54
2345.12
15932.5
28758.6
40006.4
46292.2
51273.1
52876.4
68794.8
67120.5
65411.5
60176.8
55140.6
43734
23213.6
2232.35
2304.07
15968.4
28845.5
38950.6
46285.5
51228.6
52835.1
68857.3
67196.3
65480.7
61694.5
55167
43810
23278.8
2282.5
2298.83
16074.3
28944
38476
46251.8
51171.8
52765.6
68935.9
67273.6
65559.2
61780.6
55249.3
43886.9
23304.2
2297.63
2304.92
16431.3
28970.3
38433
46187.4
51068.6
52659
69001.3
67358.1
65651.5
60452.7
55384.4
43954
23333.4
2289.45
2294.01
16331.7
28847
38827.1
46085.6
50948.7
52523.4
69035.6
67417.5
63851.8
60651.5
54465.3
43982.4
23294.6
2288.45
2295.25
16190.3
28680.8
39719.5
47376.3
50774.3
52324.8
69063.8
67449.9
63902.5
57861.6
52297.5
38498.7
17717.3
2300.49
2294.95
17011.5
30689.9
41766.4
47221
50567.2
52149.7
69098.2
67471.7
64003.9
57964.4
47709.6
38583.4
16031.5
2261.75
2302.96
18548.6
33673.1
41674.8
47107.3
50425.6
52012.3
69125.7
67501.2
64057
58052.3
47800.8
38886.8
16114.1
2255.05
2300.96
22225
33653.2
41601
47013.5
50330.6
51916.8
69131.8
67512.7
64084.9
58112.6
47908.7
39113.6
16244.2
2261.62
2301.62
22684.1
33673.1
41581.7
46979.3
50278.5
51861.6
67348
65549.4
61694.1
55314
44173.2
33793.1
3928.99
2297.81
2307.12
26876.5
38025.8
45758.4
50657.8
53623.4
55029.6
67313.3
65503
61615.9
55150.8
43957.8
33394.6
2395.39
2262.85
2306.14
26453.6
37898.2
45593.9
50571.2
53574.8
54995
67277.7
65459.1
61549.7
54901.8
44494.5
31852.2
2759.95
2268.58
2303.57
20658.7
37773.7
45462.3
50494.3
53529.6
54964.5
67262
65461.5
61502.6
54855.4
47252.9
31280.5
7363.02
2280.12
2288.29
20400.8
33378.8
45289
50390
53488.1
54946.9
67299.2
65532.5
61610.9
56868.8
47129
34472.3
15208.3
2270.65
2297.84
17251
31289.9
42183.4
50361.5
53511.7
54946.6
67402.2
65633.1
62886.4
56867.6
48855.6
35757.5
15361.6
2305.29
2326.84
17193
30214.6
42063.6
48142.2
53521.3
54972.9
67475.2
65717.1
62983
56955.3
49713.5
35823.7
15423.2
2287.21
2300.71
16960.9
30178.2
40542.6
48107
53481.4
54933.9
67566.1
65825.5
63111.9
58150.5
49792.7
35940.2
15433.4
2282.81
2298.51
16846.6
30170.4
39828
48075.7
53427.5
54870.8
67666.5
65933.4
63229.5
58269.5
49936.5
36088.9
15545.8
2322.17
2310.71
16925.4
30177.9
39807.4
48037.1
53328.9
54761.5
67756.3
66037.6
63318
57401.2
50124.3
36244.6
15711.6
2267.34
2286.51
16907.1
30164.8
40495.9
47980.7
53212.1
54629.6
67802.4
66080.8
62288.4
57587.6
49491.3
36347.2
15658.2
2306.46
2332.37
17222.5
30176.7
41919.7
49967.8
53042
54443.5
67845.8
66096.6
62252
55739.5
47994.1
32767.3
15013.4
2357.6
2294.9
18366.2
33094.8
44824.1
49830.5
52863.6
54292.1
67899.1
66126.6
62305.4
55774.9
45407.6
32143.1
5220.04
2269.9
2304.74
20311.9
37167
44785.8
49763.3
52760.7
54179.9
67941.2
66172.8
62363.7
55992.5
44889.7
34197.7
2422.69
2236.66
2302.57
25607.2
37222.3
44713.6
49713.5
52694.6
54105.2
67957.8
66198.5
62416.7
56116.9
45071.9
34496.2
2626.02
2228.88
2302.56
25855.2
37312.7
44776.4
49715.8
52663.1
54064.2
68571.3
67054.9
63770
58539.1
48652.3
35602.5
2302.94
2319.73
19205.6
39237.9
46172.5
52024.8
55768.3
57989.8
59042.6
68525.6
66989.5
63655.6
58301.5
48180.7
35208.6
2302.22
2306.79
14949.4
38188.2
45487.9
51725.8
55628.2
57921.4
59002.4
68477.5
66917.7
63552.6
57839.5
49245.4
34486.4
8268.02
2316.7
2317.26
28580.8
45237.9
51480.2
55487.3
57862.7
58971.1
68452.1
66882.2
63445
57670.1
49224
34031.4
9210.83
2290.93
2298.73
26371.4
39673.5
51277.8
55347.4
57821
58966
68487.7
66944.7
63535.7
58135.7
48831.7
35270.5
15684
2295.93
2297.03
21478.7
36862.6
47576.1
55385.4
57872.5
58998.6
68604.1
67083.3
63797
58099.1
49580.4
35813.7
15084.9
2272.27
2312.85
21652.3
35447.2
47454.2
52713
57972.1
59075.3
68695.4
67200.1
63930.9
58235.9
50086.3
35870.8
15079.9
2274.07
2303.12
21176
35358.6
45585
52688.5
57970
59060.6
68817.7
67347.1
64104.4
58904.2
50268.6
36119.7
15148.5
2309.4
2301.89
21050.8
35351.5
44698.9
52686.3
57920.2
58998.3
68940.3
67488.6
64275.5
59096.5
50536.7
36429.9
15298.9
2298.14
2296.41
21091.2
35406.1
44716.3
52655.6
57798.4
58860.8
69056.1
67619.2
64413.2
58958.1
50848.6
36792.5
15578.2
2299.99
2297.86
21176.8
35480.8
45653.2
52594.1
57635.3
58692.6
69121.2
67661.1
64477.9
59184.5
50788.6
37175.9
16054.9
2276.19
2312.13
21510.7
35590.4
47474.4
55025.1
57383.5
58461.3
69179.7
67700.8
64465.1
59000
50457.7
35665
14866.8
2280.98
2305.25
23260.9
39472
50909.1
54814.5
57191
58293.5
69247.7
67766.5
64563.2
59091.9
50753.9
35878.1
9522.87
2284.95
2306.28
26862.7
44682.7
50866.4
54783.4
57098.7
58183.8
69303.6
67838.9
64647.1
59497.9
49518.6
36927.3
2302.82
2301.88
7699.35
36448.7
44426.9
50817.4
54782.2
57048.2
58120.4
69331.7
67882.9
64734.4
59692.7
49929.1
37497.1
2305.62
2317.17
9970.55
37167.9
44860.5
51003.8
54837.7
57040.6
58092.7
72055.6
71171.8
69220.5
66557.7
61257.2
58935.7
40945.5
53363.3
62528.5
59915.4
59004.3
61433.1
62936.6
63932.9
64458.3
71998
71080.7
69042
66137.8
60024.7
54707.2
30649.3
9009.91
48990
56626.8
57620.2
60927.2
62718.2
63849.3
64417.9
71934.5
70973.1
68919.8
65393.4
60809.9
47757.2
23788.1
3053.03
22873.5
44374.4
57192.3
60368.3
62505.3
63789.7
64398.4
71888.3
70882.7
68675
65120.1
57577.3
45247.9
21203.7
2330.87
2307.9
39798.7
50714
60084.1
62320.8
63781.7
64430.4
71912
70906.8
68729.4
63912.3
56864.2
44124.2
21365.2
2292.4
2301.14
32049.5
47351.3
56207.5
62514
63920.5
64540.2
72021.8
71061.9
67919
63800.1
56433.6
43548.2
20153.4
2275.6
7854.04
32089.9
45620.7
56229.1
59705.6
64127.7
64726.9
72128.1
71204.9
68001
64033.7
56554.2
43877.7
20391.6
2279.43
2306.97
31528.8
45628.6
54191.3
59780.6
64186.3
64757.9
72274.8
71385.4
68219.2
64007.6
56968.4
44718.5
21562
2368.73
2317.68
31657.6
45809.1
53228.9
59855.4
64130.3
64683.8
72416.9
71553.3
68436.6
64305.5
57445.6
45421.8
22050.6
2274.76
2325.29
31995.3
46048.6
53313.1
59800.7
63923.5
64472
72556.3
71707.3
68630.6
65073.5
57918.8
46070.2
22611.2
2312.9
2308.61
32363.8
46273.5
54444.3
59654.1
63664.3
64221.4
72638.4
71768
69936.9
65253
58559.2
46931.6
27299
4244.09
2320.89
32688.2
46428
56431.5
62048.2
63324.9
63889.6
72718.1
71848.7
69960.9
66961.4
59424.3
48162.4
23966.7
2274.61
2331.79
35504.5
50895.7
59825.6
61778.8
63082.4
63675.6
72807
71961
70162.5
67082.2
63191.4
49074.2
24168.2
3074.86
18472.1
42205.7
56873.3
59833.6
61793.2
62982.7
63555.9
72877.3
72065.8
70259
67776.3
62299.5
58131
41470.7
2504.82
48753.1
56392.9
56774.1
60111.9
61859
62945.9
63500.6
72917
72134.9
70415
68186.2
63603.2
62948.8
56039.1
50617.7
58809.2
59487.3
57931.4
60521.8
61997.6
62966.2
63486.3
76929.7
76830.8
76565.9
77442.6
78028.5
89098.1
111084
107402
102717
80199.8
73734.1
72072.4
70973.9
70626.3
70567.4
76868.7
76730.1
76384.9
77070.6
77745.3
88405.1
125157
126391
97994.5
78333.9
72442.2
71545
70720.8
70549.9
70537.8
76798.6
76586.4
76259.4
75842.5
77123.8
73854
90996.4
99833.8
84305.7
70076.7
71350.6
70762.5
70527.1
70514.7
70546
76733.4
76462.6
75894.7
75421.6
71490.6
69131.5
68623.4
40883.5
50724.7
65387.6
66463.9
70298.9
70385.4
70574.9
70636.5
76738.9
76455.1
75852.2
72946.3
70764.8
63911.7
45073.7
3222.25
20741.9
54739.5
63264.2
67294.3
70592.1
70830.9
70846.3
76846.2
76539.1
74308
72881.9
68896.8
61872.2
40969.2
2314.2
13564.1
53644.2
61579.3
67489.4
68346.7
71080.3
71152.3
76948.6
76672.2
74451.5
73151.3
68508
62819.8
44978.6
2709.49
22755.3
55106.8
62015.6
65792.7
68593.8
71212.9
71255.8
77099.3
76856.9
74709.4
72375.8
69257.6
64846.4
56513.8
2321.91
26513.9
56362
62565.5
64933.1
68610.3
71105.3
71139.1
77245.6
77025.9
74960.9
72749.8
69962
66243.8
55055.2
26238.5
25826.4
57199
63101.9
65097.8
68455.5
70726.3
70776.1
77396.3
77203
75179
74322
70481.1
67083.5
54300.2
2297.85
28058.6
58904.2
63684.9
66190.5
68243
70332.9
70388.2
77485.3
77357.8
77145.3
74602.9
71841
67901.7
57128.2
9092.77
27378.1
59162.3
63832.6
67608.9
69891.1
69989.2
69971.8
77580.9
77466.5
77280.2
77462.7
74054.8
73486.8
61742.6
10824.2
29484.9
61940.5
67214.4
69967.3
69704.3
69710.4
69719.1
77683.2
77603.5
77571.2
77677
79749.7
75448.1
88071.3
94670.3
80460.3
69416.3
71149.1
70247.9
69742.4
69607.6
69593.2
77755.4
77736.6
77653.5
78802.8
80297.7
90449.2
132056
131288
98673.8
78583.8
71983.1
70897.5
69852.7
69593.7
69548.4
77796.7
77812.1
77805.7
79127.2
80550.4
90899.6
116696
114418
101291
80473.3
73109.5
71350.2
70022.4
69630.8
69544.5
82041
82576.6
83492.1
86549.4
89982.1
97159.5
114347
110203
107672
90039.9
84806.5
80822.8
78177.6
76993
76491.3
82001.3
82518.3
83461.9
86582
90937.4
97854.2
118191
115599
105825
90670.2
84430.3
80617.6
78067.4
76971.4
76493
81952.7
82369
83453.7
85551
90378.7
94838.2
109245
129283
106656
91510.7
83678.1
80058.9
77998.7
76992.9
76552.9
81890.5
82261
83113.9
85194.2
86059.6
94065.7
112024
142966
114397
91059
82077.5
79577
77975.1
77139.2
76725.1
81873
82204.6
82888.2
82784.9
85386.9
89533.2
104222
166982
111736
87607
80547.8
78275.6
78212.8
77525.7
77056.2
81931.7
82139.4
81410
82454.7
83554.2
87084.3
102394
161503
110761
86990.7
79793.3
78304.9
77192.3
77942.8
77531.1
82001.1
82196.7
81583.7
82431.5
82764.1
87252
101723
159749
119261
89560.2
80307.3
77597.4
77496.2
78306.2
77813.4
82126.7
82337.5
81794.8
81858.4
83152.2
88400.4
102820
145805
121528
91370.7
80858.7
77301.6
77336.9
78073.7
77614
82252.6
82485.7
82038.7
82186.8
83823.8
90176.1
110622
161069
112562
91810.4
81354.4
77272.7
76899.5
77288
76942.3
82400.7
82683.3
82256.1
83530.3
84460.1
91383.6
114098
77527.7
123344
97330.2
82308.3
77514.5
76462.7
76616.3
76323.2
82522.7
82964.8
83985.3
84175.7
85845.1
91753
112565
70678
121189
96790.8
82277
77922.1
76974.5
76245.9
75826.2
82633.7
83124.7
84279.8
86883.5
88252
97319
113906
169580
115469
92191
82255.9
78902.8
76933.5
75982.1
75555.6
82725.4
83245.9
84554.1
87033.1
92480.2
97930.4
115677
142293
112606
92720.4
83282.1
79334.3
76994.3
75900.4
75429.4
82766.3
83369.5
84495.3
87877.7
92932.2
99172.5
121727
119965
104829
90832.3
83836.4
79830.1
77063
75901.5
75387.2
82779.2
83386.9
84452.8
87641.1
91483.7
97434.4
113076
110003
106191
89815.1
84100.6
80005
77145.6
75922
75378.8
86358.4
87108.7
88198.9
90886.7
94017.8
95117.7
102292
104938