/*--------------------------------*- C++ -*----------------------------------*\
| =========                 |                                                 |
| \\      /  F ield         | OpenFOAM: The Open Source CFD Toolbox           |
|  \\    /   O peration     | Version:  v2012                                 |
|   \\  /    A nd           | Website:  www.openfoam.com                      |
|    \\/     M anipulation  |                                                 |
\*---------------------------------------------------------------------------*/
FoamFile
{
    version     2.0;
    format      ascii;
    class       volScalarField;
    location    "0.026";
    object      p_rgh;
}
// * * * * * * * * * * * * * * * * * * * * * * * * * * * * * * * * * * * * * //

dimensions      [1 -1 -2 0 0 0 0];


internalField   nonuniform List<scalar> 
449343
(
102072
102245
102544
102876
103096
103040
102443
101240
99466.2
97315.3
95072.7
93015.4
91343.9
90178.8
89583
102073
102246
102545
102876
103096
103037
102440
101236
99462.6
97312.8
95070.9
93013.1
91340.5
90174.2
89577.8
102075
102248
102547
102878
103096
103033
102432
101227
99455
97308
95067.8
93009
91333.6
90164.8
89566.9
102077
102250
102550
102879
103094
103024
102420
101212
99442.6
97299.6
95062.8
93002.5
91322.8
90149.8
89549.6
102077
102251
102551
102879
103090
103011
102402
101193
99425.4
97286.6
95053.3
92990.9
91305.4
90127
89523.9
102075
102248
102548
102874
103081
102994
102379
101167
99400.7
97266
95034.6
92969.5
91277.5
90093.3
89487.1
102068
102241
102540
102863
103065
102971
102349
101130
99363.9
97231.4
94998.3
92931.7
91233.9
90045
89436.5
102056
102228
102525
102844
103041
102940
102308
101083
99309.6
97176
94940.8
92871.4
91170.6
89979.9
89370.6
102037
102208
102501
102815
103007
102898
102260
101025
99243.8
97099.2
94858.3
92787.4
91088
89899
89290.7
102015
102183
102472
102780
102967
102851
102205
100960
99164.1
97005.8
94759.6
92686.1
90991.2
89806.9
89201.3
101990
102155
102439
102742
102924
102802
102147
100890
99080
96907.4
94652.5
92578.9
90889.9
89711.7
89109.6
101965
102128
102407
102704
102881
102755
102092
100825
99000.7
96815.7
94551.9
92478.3
90794.9
89622.7
89024
101944
102105
102380
102672
102845
102715
102046
100770
98934.6
96738.8
94467.8
92394.4
90715.5
89548.2
88952.4
101929
102088
102360
102648
102818
102685
102011
100730
98886.2
96683
94407.7
92334.7
90658.9
89494.9
88901
101921
102079
102349
102636
102804
102669
101993
100708
98860.4
96653.7
94376.5
92303.8
90629.6
89467.2
88874.2
101881
102102
102502
102991
103408
103575
103131
101887
99879.8
97398.7
94855.9
92590.1
90797.3
89570
88948.8
101882
102103
102504
102993
103409
103574
103126
101882
99875.2
97396.1
94854.2
92587.7
90793.6
89565
88943.1
101884
102106
102508
102997
103411
103570
103117
101872
99868.2
97394.4
94854.6
92585.6
90787.2
89555.4
88931.8
101886
102109
102513
103002
103413
103562
103102
101852
99855.4
97392.6
94858.8
92584.8
90778.4
89540.7
88914.4
101888
102112
102517
103007
103414
103547
103081
101831
99831.1
97388.7
94863.5
92582.6
90764.9
89519
88888.7
101887
102113
102520
103010
103412
103536
103059
101809
99815.7
97377
94860.5
92572.6
90741.6
89486.4
88851.9
101882
102108
102516
103005
103399
103521
103034
101774
99784.5
97353.7
94846.3
92545
90700.7
89438.5
88800.6
101871
102096
102502
102988
103377
103492
102992
101679
99723.1
97297
94792
92485.3
90635.9
89371.7
88732.7
101854
102077
102479
102959
103342
103450
102945
101665
99656.8
97214.4
94698.4
92392.8
90548
89286.4
88649.2
101831
102051
102447
102919
103298
103396
102883
101593
99563.6
97100.9
94568.5
92272.7
90441.2
89187.9
88555
101806
102022
102411
102874
103247
103340
102822
101515
99461.8
96982.2
94435.7
92146.1
90328.5
89085.9
88458.1
101782
101994
102376
102831
103197
103294
102765
101443
99381.6
96872.1
94311.7
92028.5
90223.4
88990.5
88367.8
101761
101970
102347
102795
103156
103252
102718
101388
99308.9
96780.8
94210.9
91932.2
90136.5
88911.2
88292.3
101746
101953
102325
102769
103125
103218
102681
101343
99253.4
96714.4
94140
91864.8
90075
88854.6
88238.3
101738
101944
102314
102755
103109
103200
102660
101319
99223.9
96680.2
94104.1
91830.4
90043.4
88825.3
88210.2
101401
101731
102364
103224
104139
104872
104887
103542
100910
97561.3
94277.3
91532.6
89472.2
88110
87434.3
101402
101733
102367
103228
104142
104871
104879
103531
100900
97555.7
94273.9
91528.6
89466.8
88103.6
87427.4
101404
101737
102374
103238
104151
104874
104864
103519
100889
97559.2
94279.8
91528.2
89459.7
88092.5
87414.5
101408
101744
102385
103254
104167
104871
104836
103504
100866
97576.8
94312
91541
89454.3
88077.6
87395.7
101412
101751
102398
103274
104181
104852
104761
103421
100815
97610.4
94351.6
91558.8
89448.2
88057
87369.2
101414
101757
102413
103293
104199
104841
104734
103411
100822
97631.5
94406.9
91576.2
89433.2
88025.8
87331
101412
101757
102416
103307
104196
104846
104717
103389
100805
97622.4
94485.4
91570.2
89400.2
87977.6
87277
101403
101749
102408
103299
104183
104835
104709
103272
100741
97564.8
94432.1
91509.3
89331.9
87906.1
87203.9
101388
101731
102385
103267
104140
104778
104624
103268
100659
97467.3
94319.1
91400.2
89231.1
87810.8
87112
101367
101705
102349
103211
104085
104711
104551
103174
100531
97320
94069.6
91234.8
89098.4
87697.7
87007.1
101343
101674
102305
103153
104011
104654
104491
103073
100385
97138.4
93856
91061.5
88960.7
87580.3
86898.9
101319
101644
102263
103095
103946
104609
104471
103039
100308
96962.8
93673
90905.1
88833
87471.2
86798.1
101299
101619
102228
103048
103888
104558
104433
102969
100231
96832.6
93526
90779.2
88729.4
87381
86714.2
101284
101601
102204
103015
103846
104513
104390
102910
100160
96738.3
93429
90694.6
88657.5
87317.4
86654.5
101277
101592
102192
102999
103826
104491
104366
102880
100121
96692.7
93382.6
90652.9
88621
87284.6
86623.6
100499
100989
101968
103419
105221
107059
108303
106783
102761
97597.4
93035.6
89597.4
87198.8
85684.9
84955.1
100500
100991
101972
103425
105227
107058
108280
106754
102730
97573.6
93022.2
89585.1
87187.6
85674.7
84945.3
100502
100996
101983
103444
105251
107071
108258
106738
102717
97579.2
93018.5
89576.5
87173.9
85658.6
84928.2
100506
101004
102002
103482
105295
107108
108117
106761
102677
97715
93114.5
89602.2
87167.9
85640.4
84905.3
100510
101015
102027
103525
105362
107083
107250
106354
103322
97867.1
93234.9
89652.3
87165.8
85617.4
84874.8
100515
101029
102067
103610
105437
106267
107170
106355
103394
99066.3
93445.4
89717.5
87161.8
85583
84831.8
100515
101035
102084
103650
104787
106311
107149
106338
103392
99106.2
94655.6
89724.4
87129.4
85530.7
84771.2
100510
101034
102088
103655
104774
106325
107167
106223
103355
99075.6
94585.8
89657.3
87059.9
85453.1
84688.3
100499
101017
102063
103621
104745
106276
107089
106223
103273
98966.6
94480.5
89527.9
86934.7
85341.1
84585.5
100482
100991
102018
103546
105353
106172
107004
106139
103127
98786.3
93015.5
89307.2
86771.4
85208.8
84466.6
100462
100960
101957
103431
105219
106878
107012
106035
102948
97281.1
92620.2
89055.8
86597.4
85073.3
84344.2
100442
100931
101907
103352
105105
106833
107707
106200
101954
96916.4
92310.7
88834.1
86441.3
84946.9
84230
100426
100907
101867
103286
105018
106733
107785
106076
101887
96650.5
92075.8
88670
86317.6
84843.5
84135.4
100414
100891
101840
103243
104959
106666
107726
105987
101770
96496.6
91939.8
88565
86233.6
84771.1
84068.6
100408
100882
101827
103224
104932
106636
107702
105949
101723
96435.9
91880.2
88515
86191.8
84734.3
84034.3
98975.4
99638.3
101013
103200
106283
110229
114394
112294
105648
96894.1
90461
86372
83759
82198.6
81475.5
98974.2
99638.3
101015
103207
106293
110228
114352
112240
105556
96800.9
90406.1
86334.8
83733.3
82180.3
81460.2
98972.8
99639.9
101024
103230
106339
110266
114337
112181
105492
96726.8
90355.3
86292.1
83700.1
82153
81434.8
98972.5
99645.6
101047
103307
106512
110427
112012
112246
106968
97263.2
90563.1
86326
83682
82124.9
81403.5
98969.4
99649.7
101080
103389
106656
108918
112031
112227
107126
99457.7
90804.4
86380
83671.5
82090.8
81363.7
98973.4
99671.5
101152
103619
105798
109123
112116
112192
107212
99765.9
92996
86512.2
83645.9
82048.8
81310
98969.1
99666.9
101147
103022
105856
109253
111163
111488
107494
100772
93265.5
88340.6
83566.4
81968.5
81233.9
98971.1
99675.8
101218
103023
105899
109285
111202
111492
107553
100836
93337.6
88350
83580
81872.4
81142.2
98965.1
99662.2
101144
103001
105870
109249
111144
111440
107441
100715
93167.6
88202
83341.1
81752.1
81024.3
98961.9
99655
101126
103583
105749
109091
111088
111304
107209
99470.5
92690
86011.7
83186
81618.9
80895.9
98953.3
99627.8
101045
103332
106551
108835
111819
111784
106562
98970.7
89988.4
85640.8
82998.8
81464.6
80761.3
98946.1
99610.4
100993
103222
106372
110186
111696
111728
106345
96146.2
89513.4
85376.5
82820.1
81325.3
80636
98939.5
99595.2
100954
103121
106158
109930
113869
111514
104413
95455
89128.1
85173.1
82682.9
81211.5
80532.5
98934.6
99584.9
100932
103073
106070
109821
113778
111375
104224
95249
88961.2
85058
82592.1
81132.7
80459.8
98932.1
99580.1
100922
103053
106038
109779
113752
111319
104161
95169.1
88891.8
85004.8
82547.8
81093.1
80422.6
96578
97362
99049.4
101927
106479
113686
119784
126253
114064
93504.6
85400.2
81308.1
78872
77546.4
76971
96572.5
97357.1
99046
101930
106492
113682
119742
126072
113684
93088.7
85218.4
81205.7
78817.4
77514.7
76947.6
96561.5
97346.9
99039.4
101926
106512
113716
119694
125860
113257
92667.3
84986.6
81068.8
78743.6
77467.8
76910.1
96550.2
97342.4
99051.6
101994
106897
111589
119814
125885
113093
96923.4
85099
80965.6
78686.8
77422.8
76866.5
96526.7
97318.3
99034.5
102079
105713
111886
120132
123440
114440
97898.8
88485.9
80960.9
78595.2
77358.7
76811.4
96521.6
97306.6
99107.6
101719
105877
111022
118382
122520
114784
100371
88865.9
83461.4
78510.8
77268.8
76738.2
96504.4
97279.6
99114.5
101784
106057
111080
117537
122620
115421
101578
90717.9
83583.5
78400.4
77145.8
76639.1
96499.8
97259.8
99162.8
101856
105439
110625
117627
122732
115603
101760
90769.1
83567
80323.8
76987.7
76527.6
96514.9
97289
99120.9
101826
105434
111100
117627
122725
115559
101645
90600.5
83347.6
78109.3
76898
76404
96537.7
97321.8
99120.2
101715
106012
111069
117489
122535
115164
101144
90202.8
83039.7
77972.7
76781.6
76275.2
96552.7
97339.6
99049.8
102081
105719
111949
118168
123166
114024
99273.8
87792
80031.5
77801.3
76644.9
76137.6
96573.4
97359.9
99056.4
101983
106866
111530
119631
125351
112067
95846.7
83747.6
79802.3
77675.9
76513.8
76007.9
96586
97363.5
99037.2
101894
106442
113541
119351
125059
111779
90771.4
83372.4
79685.5
77548.3
76396.4
75899.6
96595
97368.8
99033.7
101877
106382
113435
119234
124948
111644
90664.3
83269.3
79607.7
77465.2
76317.1
75823.8
96599.2
97371.4
99031.6
101864
106348
113392
119205
124911
111599
90615.1
83215.9
79566.5
77424.7
76277.2
75785.1
93084.1
93838.6
95513.7
98538.6
103626
110666
127410
158502
122251
88251.7
75748
73561.3
72291.6
71746.1
71539.1
93072.6
93827.1
95498.9
98519.9
103611
110649
127347
158242
120137
87057.3
75305.5
73352.8
72198.8
71698.4
71507.4
93046
93790.5
95453.9
98448.9
103502
110621
127209
157920
118418
85936.2
74851.3
73109.3
72079.2
71629.1
71458.9
93012.2
93754.1
95405.8
98245.1
102965
111007
127173
157627
117718
85673.8
78302.3
72762.4
71969.3
71558.1
71405.1
92955
93668.7
95220.6
98383.4
103004
110160
124339
157532
119383
89993.7
78330.3
75193.4
71758.2
71466.1
71336.4
92903.4
93542.8
95768.5
98457
102804
110170
123005
152692
124706
92764.1
81039
75213
73611.9
71315.3
71247.1
92880.4
93512.8
95786.5
98475.4
102860
109828
123036
152909
125329
93752.7
82782.5
77048.1
73575.6
71224
71152
92860.2
93492.7
95861.4
98523.5
102887
109863
123135
153253
126286
94599.3
83120.9
77084.4
73525.7
71121.3
71019.6
92910.8
93545.6
95823.5
98553.4
102925
109896
123209
153442
126628
94537.4
82900.8
76878.1
73299.9
70957
70898.6
92955.2
93593.4
95832
98490
102918
109908
123218
153298
125457
93130
82056.3
76405
73059.7
70790.2
70750.8
93029.6
93745.2
95303.9
98451.3
103096
110313
123205
152933
123146
91131.7
79767.6
74179.2
70846.9
70682.1
70609.6
93100.3
93838.9
95487.6
98331.3
102931
111020
124478
157563
116355
88007.4
76638.6
71385.1
70830.8
70564.7
70479.4
93143.5
93887.1
95542.3
98524
103579
110676
127233
157513
115924
83253.3
72811.6
71480.5
70734.6
70456.8
70368
93174.2
93922.3
95583.4
98586.6
103666
110654
127233
157515
115865
83103.8
72824.9
71455.6
70668.9
70381.9
70290.1
93187.4
93935.8
95596.7
98598.4
103666
110619
127234
157505
115942
83108.2
72836.7
71446.3
70636
70343
70250.3
88431.4
88902.6
89938.5
91805.7
94804.4
101616
108907
105521
60928.7
61454.5
61562.5
63181.9
64366.3
65182.6
65561.8
88415.3
88883.5
89914.2
91769.8
94774.9
101577
108894
105571
42082.6
58697
60789.7
62870.9
64242.6
65124.5
65526.8
88378.1
88832.5
89850.2
91707.4
94665.9
101471
108808
105608
32612.7
56621.8
60194.1
62644.8
64128.8
65059
65483.3
88323.3
88747.7
89738.5
91431.5
96039.7
101059
108531
105422
29098.3
56138.7
61660.5
62697.1
64088.6
65010.7
65448.8
88239.4
88625.7
89524.8
92646.9
95795
101529
109337
105044
35980.9
60720.7
63740.5
64303.6
64130
64992.9
65414.2
88143.2
88507.9
90754.7
92553.6
96329.7
101820
109161
104671
42306.5
62903.9
65607
64618.9
65526.7
65001.9
65367.6
88126.9
88480
90754.9
92498.6
96626.7
101806
109157
104784
47175.7
66150.2
66878.3
66074.1
65539.2
64994.3
65321
88128.2
88470.4
90742.7
93200.8
96656.8
101840
109248
105012
55713.8
68701.5
67647.8
66955.8
65514.7
64922.5
65212.2
88175.1
88529.2
90768.2
93216.1
96690.1
101898
109366
105311
62301
68401.8
67246.8
66695.3
65282.4
64727.6
65068.9
88238.2
88604.6
90835.7
92592.5
96714.4
101965
109484
105628
49190.1
64413.3
65716.7
65305.7
64972.4
64477.2
64872.4
88373.4
88763.4
89671.6
92724.1
96492.3
102039
109609
105903
27962
59745.9
63857.4
63308.8
63213.9
64204.8
64678.9
88486.6
88914
89913.6
91621.2
96138.4
101032
108680
106204
24937
55613
59770.2
61267.3
62914
63999
64508.9
88561.9
89018.2
90041.6
91912.2
94896.4
101514
109016
106291
24253.2
53095.2
57969.6
60906.5
62734.6
63859.7
64372.7
88611.1
89079.1
90111.2
91971.2
95000.1
101781
109183
106386
24254.2
53027.4
57921.9
60834.4
62641.4
63768.7
64282.2
88632.7
89103
90138.5
92008.7
95031.5
101833
109234
106423
24682.4
53222.3
58030.6
60834.6
62603.9
63725.8
64237.9
82887.9
82839.9
82721
82537
82627.3
86881.9
90616.2
103619
30711.1
36597.8
46802.1
52700
56538.5
58793.8
59807.6
82873.9
82822.3
82699.8
82510.6
82612.2
86836.1
90576.1
103417
4742.12
34948.1
46147.2
52414.1
56421.7
58740.2
59778.3
82844.1
82783
82652.9
82495.8
82575.3
86729.1
90470.2
103339
2891.19
34100.2
45866.1
52292.5
56361.2
58711.1
59759.5
82803.7
82713.6
82579.6
82572.2
85415.9
86674.6
90247.6
103197
4863.82
33985
46307.5
52534.1
56433.6
58741.1
59775
82749.9
82637.7
82560.7
84631.3
85453.2
88516.4
91310.8
103168
2234.14
34440.2
47408.4
53687.6
56675.8
58847.1
59820.6
82694
82647.9
84230.9
84579.1
86735.1
89331.7
91218.2
102840
2482.07
36143
48680.5
54044.1
57597.6
58979.1
59863.5
82707.4
82665.3
84185.4
84579.3
87419.6
89293
91202.4
102837
40763.2
40973.9
50107.6
54913.4
57708
59009.5
59858.3
82729.5
82679.3
84170.8
85630.5
87426.8
89315.5
91254.3
102878
35790.4
43231
50908.5
55424.8
57690.2
58948.5
59768.3
82780.3
82738.7
84209.4
85658.3
87472.5
89377.8
91344.1
103036
24050.4
41322.1
50363.1
55168.4
57487.7
58754.2
59622
82835.7
82790.2
84286.9
84724.3
87538.1
89471
91456.4
103183
2318.62
37362.6
48838.3
54182.1
57156.2
58482.9
59401.1
82952
82844.9
82774.4
84770.9
86977.4
89608.4
91586.9
103318
6117.46
34390.2
47213.1
52814.8
55820.8
58116.1
59130.6
83052.8
82968.3
82848
82852.6
85737.8
87123
90821.8
103679
6086.15
32686.4
45136
51310.3
55364.8
57802.3
58890.9
83125.8
83069.2
82948.6
82806.4
82909.8
87025.2
90756.2
103668
2579.66
32119.5
44128.9
50809.7
55098.2
57593.5
58711.9
83175.8
83127
83010.5
82829.5
82952.1
87121.7
90911.6
103795
2732.56
31989.3
43990
50641.7
54954.2
57469
58599.3
83199.2
83153.3
83039
82861.3
82969.7
87196.3
90992.3
103869
3107.93
32084.1
44081.7
50611.8
54902.4
57417.4
58547.2
77142.4
76518.7
75234
73227.3
73054.1
72348.2
75129.2
8149.24
25467.5
37870.3
45477.5
50709.1
53841.7
55296.3
77136.1
76509.3
75221.3
73212.3
73019.1
72280.9
75037.7
2194.72
25278.9
37588.8
45337.5
50638.4
53806.4
55277.8
77127.4
76499.2
75197.7
73182.4
73027.1
72226.3
74902.4
2221.58
24771
37580.6
45301.5
50622.4
53807.8
55279.7
77131
76496.2
75173.7
73346.3
73329.8
72141.8
74712.2
2228.13
24614.1
36870.2
45541.4
50708.2
53870.5
55321
77151.1
76514
75348
75439.9
73938.5
74222.1
75380.1
2244.24
22476.7
36675.1
45582.6
50886.7
53991
55395.1
77180.8
76673.9
76937
75741.3
75363
75213
75354.1
2267.38
22560.8
36969.2
45817.6
51123.8
54047.3
55461.6
77235.5
76740.3
76914.6
75865.7
76195.3
75280.2
75381.2
2574.14
24216.7
37801
46053.9
51246.8
54047
55456.9
77280.6
76793.6
76938.7
76829.6
76328.8
75339.9
75433.5
2299.07
26021.3
38371.2
46266.4
51205.5
53993.6
55379.4
77338.2
76846.6
76986.3
76890.4
76383.7
75400.4
75501.8
22180.8
25820.1
38135.4
46102.5
51063.8
53843
55254
77376.6
76867.8
77069
76026.8
76354
75455.1
75578.2
4354.61
24045.2
37261.4
45599.5
50827.6
53644.1
55064
77431.7
76803.8
75647.6
75714
75581.1
75477
75655.6
5310.67
22830.4
36353.4
45064.3
50257.3
53387.5
54801.7
77477.2
76849.9
75547.3
73722.8
73785.3
72640.3
74849.2
2347.59
22804.8
36196.3
44680.8
49875.7
53086.6
54555.6
77518.8
76896.4
75603.8
73594.5
73436.4
72579.1
75189.7
2364.14
23634.7
36495
44245.9
49621.4
52863.9
54367.8
77555.3
76932.5
75649.6
73634.5
73460.9
72651.4
75344.2
2379.23
23759.1
36288
44083.4
49475.2
52730.5
54248.5
77574.8
76953.9
75671.7
73654.7
73441.8
72700
75443.2
2413.22
23886.6
36311.7
44027.5
49419
52674.8
54193.4
72088.2
70916.4
68476.4
64288.6
62278.1
55499.5
52164.6
4909.53
2201.31
23608
34328.2
42363.5
47871.1
51240.4
52853.5
72086
70909.6
68458.1
64247.6
62216.5
55324.8
51696.7
2286.58
2190.98
22935.2
34097.8
42294.5
47826.6
51219.1
52842.4
72087.2
70909
68429.9
64161.8
62157.3
55172.6
51466.3
2261.11
2215.06
19418.9
34219
42252.8
47819.1
51225.4
52847.5
72113.2
70937.3
68377.2
64145
62117.3
55027.7
51384.4
2267.74
2247.91
19660.8
32155.7
42314
47859.8
51273
52879.8
72175.9
70984
68397.9
67152.8
62011.1
57859.5
53234.1
2284.77
2266.11
17537.2
31117.6
41101.8
47937.5
51366.2
52934.6
72257.3
71099.9
70440.4
67117.5
63969.9
59183.7
53346.3
2458.48
2280.62
17277.4
30732.4
41192.5
47251.9
51398.5
52993.6
72326.8
71156.3
70472.9
67072.1
64872.4
59244.5
53421.7
2177.14
2306.97
17756.2
31089.2
40718
47327.3
51383.2
52980
72389.8
71231.9
70522.9
68495.2
64947.9
59316.8
53481.2
2474.61
2296.62
18446.5
31408.2
40563.1
47310.9
51340.7
52917.5
72464.2
71300
70595.4
68578.9
65018.3
59385.5
53544.4
3256.47
2649.31
19046.4
31422.4
40496.8
47227.4
51230
52816.4
72517.3
71360.2
70695.5
67323.1
65100.5
59445.4
53603.5
3900.38
2310.24
18439.5
31060.3
40523.6
47077.2
51090.5
52669.2
72549.1
71369.2
68807.9
67528
64325
59493.2
53638.1
2927.47
2280.14
17878.7
30624
40798.7
47472.2
50892.8
52448.8
72571.9
71407.4
68872.8
64645.3
62531.6
55462.9
51798.6
2677.9
2254.56
18311.6
31738.6
41717.7
47232.7
50645.1
52244.8
72603.7
71435.1
68971.3
64710.7
62612.4
55561.5
51819.8
2404.33
2367.11
18952.7
33575.9
41503.1
47055.6
50462
52087.2
72637.4
71468.4
69027.8
64812.6
62734.2
55712.9
51948.4
2299.6
2382.08
21739.7
33318.9
41400.1
46940
50351.1
51985.4
72656.2
71490
69056.1
64855.2
62784.7
55837.7
52135.7
2280.2
2408.88
21969.5
33352.5
41350.8
46898
50302.5
51937.1
68548
66911.9
63457.2
57465
47284.9
38813.8
16728.9
2246.75
2208.86
24474.5
34366.3
42508.9
47889
51185
52766.8
68541.6
66897.8
63420.7
57383.9
47139.9
38522.6
15984
2263.03
2198.29
23393.5
34299.3
42435.4
47844.1
51166.2
52756.7
68535.7
66887.2
63380.1
57297.4
47062.8
38159.9
15821.3
2255.22
2224.94
19110.4
34248.5
42359.8
47818.6
51158.6
52754.1
68550.5
66911.8
63309.2
57218.7
51698.4
37880.1
15756.6
2262
2239.88
18802
30990
42269.9
47792.2
51165.3
52766.1
68607.1
66966.7
63339.6
60100.1
51738.9
41724
22190
2291.65
2283.92
16085.8
29471.6
40002.9
47783.5
51220.8
52792.7
68701
67036.9
65279.4
60129
54046.1
43614.5
23094.1
2270.55
2344.5
15884.7
28710.8
39962.2
46248
51233.8
52837.1
68775.2
67100.9
65387
60152.2
55112.4
43705.8
23185.4
2231.52
2301.47
15940.2
28817.3
38923.6
46260.9
51209
52815.4
68857.3
67196.3
65475.8
61687.1
55158.4
43801.4
23270.3
2282.27
2298.3
16065.7
28935.4
38467.5
46246.9
51171.8
52765.6
68955.5
67293.2
65574
61792.9
55260.3
43897.9
23315.2
2297.79
2309.44
16442.4
28981.3
38444
46202.1
51088.2
52678.6
69040.5
67397.3
65685.8
60487.1
55415
43984.6
23364.1
2289.55
2296.93
16362.3
28877.7
38859
46119.9
50987.9
52562.7
69094.5
67476.4
63910.6
60705.4
54516.8
44032.7
23344.9
2290.06
2308.24
16240.6
28731.1
39773.5
47435.2
50833.1
52383.7
69142.3
67528.4
63981
57940.1
52371.1
38572.2
17788.5
2308.29
2298.03
17082.7
30763.5
41844.9
47299.5
50645.7
52228.2
69196.3
67569.8
64102
58062.5
47807.7
38676.6
16122.3
2262.05
2373.45
18641.8
33771.2
41772.9
47205.4
50523.7
52110.4
69243.5
67618.9
64174.7
58170
47918.6
38999.6
16224.5
2255.27
2384.2
22342.7
33770.9
41718.8
47131.2
50448.3
52034.5
69269.1
67650
64222.2
58250
48046.1
39246
16374.2
2261.79
2408.32
22821.5
33810.4
41719
47116.6
50415.8
51998.9
67210.7
65412
61556.7
55176.6
44035.8
33655.7
3786.78
2270.24
2175.55
26739.2
37888.4
45621
50520.4
53486.1
54892.2
67195.6
65385.3
61498.2
55033
43840.1
33276.9
2273.57
2262.68
2197.52
26335.9
37780.4
45476.2
50453.5
53457.1
54877.3
67179.6
65361
61451.6
54803.7
44396.4
31749.1
2657.21
2268.37
2222.73
20555.7
37675.6
45364.2
50396.2
53431.5
54866.4
67183.5
65383
61424.1
54776.9
47169.5
31197.1
7279.64
2279.98
2272.53
20317.4
33295.4
45210.6
50311.6
53409.6
54868.4
67240.3
65473.6
61552.1
56805
47065.2
34406
15140.9
2269.42
2282.43
17183.5
31223.7
42119.6
50302.6
53452.8
54887.8
67362.9
65593.9
62842.3
56823.5
48809
35709.7
15313.7
2302.62
2313.93
17145.2
30166.8
42019.4
48098.1
53482
54933.6
67455.6
65697.4
62958.5
56930.7
49685.3
35795.5
15395
2287.15
2298.92
16932.7
30150
40515.6
48082.5
53461.8
54914.3
67566.1
65825.5
63107
58143.1
49784.1
35931.6
15424.9
2282.75
2297.9
16838
30161.9
39819.4
48070.8
53427.5
54870.8
67686.1
65953.1
63244.2
58281.8
49947.5
36100
15556.8
2322.72
2313.45
16936.4
30188.9
39818.4
48051.8
53348.5
54781.1
67795.6
66076.8
63352.3
57435.6
50155
36275.3
15742.2
2267.91
2290.3
16937.8
30195.5
40527.8
48015
53251.3
54668.8
67861.3
66139.6
62347.2
57641.5
49542.8
36397.5
15708.5
2313.01
2349.43
17272.8
30227
41973.6
50026.7
53100.9
54502.3
67924.3
66175.1
62330.5
55818
48067.7
32840.9
15084.6
2381.5
2303.39
18437.3
33168.4
44902.6
49908.9
52942.1
54370.6
67997.2
66224.7
62403.5
55873
45505.7
32236.3
5313.22
2270.1
2379.69
20405.1
37265.1
44883.9
49861.4
52858.8
54278
68058.9
66290.5
62481.4
56110.2
45007.4
34315.5
2534.9
2236.8
2404.55
25724.9
37340
44831.3
49831.2
52812.3
54223
68095.1
66335.9
62554.1
56254.2
45209.3
34633.5
2758.17
2229.06
2423.49
25992.5
37450.1
44913.7
49853.1
52800.5
54201.5
68434
66917.6
63632.7
58401.8
48515
35465.1
2217.98
2286.56
19068.2
39100.6
46035.2
51887.5
55630.9
57852.5
58905.3
68407.9
66871.8
63537.9
58183.7
48063
35090.9
2234.26
2293.43
14831.7
38070.5
45370.1
51608
55510.5
57803.7
58884.6
68379.4
66819.6
63454.5
57741.4
49147.3
34383.4
8165.01
2259.2
2223.52
28477.8
45139.8
51382.1
55389.2
57764.6
58873
68373.6
66803.7
63366.6
57591.7
49140.6
33948
9127.44
2290.14
2267.69
26288
39590.1
51199.4
55268.9
57742.5
58887.5
68428.8
66885.9
63476.8
58071.9
48767.9
35204.3
15616.6
2294.87
2276.45
21411.2
36796.4
47512.3
55326.6
57813.6
58939.7
68564.8
67044.1
63752.9
58055
49533.8
35765.8
15037
2271.8
2284.88
21604.5
35399.4
47410.1
52668.9
57932.8
59036.1
68675.8
67180.5
63906.4
58211.3
50058.1
35842.6
15051.7
2273.99
2297.55
21147.8
35330.4
45558
52663.9
57950.4
59041
68817.7
67347.1
64099.5
58896.9
50260
36111.1
15139.9
2309.29
2299.22
21042.3
35342.9
44690.4
52681.4
57920.2
58998.3
68959.9
67508.2
64290.3
59108.7
50547.7
36441
15310
2299.41
2298.88
21102.2
35417.1
44727.3
52670.3
57818
58880.4
69095.3
67658.4
64447.5
58992.4
50879.3
36823.2
15608.8
2313.26
2306
21207.5
35511.5
45685
52628.5
57674.5
58731.8
69180
67720
64536.8
59238.5
50840.1
37226.2
16105.2
2276.44
2339.2
21561
35640.7
47528.4
55084
57442.4
58520.2
69258.2
67779.3
64543.5
59078.4
50531.3
35738.6
14937.9
2281.44
2327.8
23332
39545.6
50987.6
54893
57269.4
58372
69345.8
67864.6
64661.3
59190
50852
35971.3
9616.07
2285.7
2387.46
26955.9
44780.8
50964.5
54881.5
57196.8
58281.9
69421.3
67956.6
64764.9
59615.6
49636.3
37045.1
2371.8
2311.19
7817.04
36566.4
44544.6
50935.1
54899.9
57165.9
58238.2
69469
68020.2
64871.7
59830.1
50066.5
37634.4
2394.09
2349.12
10107.9
37305.3
44997.9
51141.1
54975
57177.9
58230
71918.2
71034.5
69083.2
66420.3
61119.8
58798.3
40808.2
53226
62391.1
59778.1
58867
61295.7
62799.3
63795.5
64321
71880.3
70962.9
68924.3
66020.1
59907
54589.5
30531.6
8892.71
48872.3
56509.1
57502.5
60809.5
62600.4
63731.6
64300.2
71836.4
70875
68821.7
65295.3
60711.8
47654.2
23685.1
2950.93
22770.5
44271.4
57094.2
60270.2
62407.2
63691.6
64300.3
71809.8
70804.3
68596.5
65041.6
57494
45164.5
21120.4
2271.4
2250.23
39715.3
50630.6
60005.6
62242.3
63703.2
64351.9
71853.1
70848
68670.5
63848.5
56800.5
44057.9
21297.8
2257.73
2267.43
31982.1
47285.1
56143.7
62455.2
63861.7
64481.3
71982.6
71022.7
67874.8
63756
56387
43500.3
20105.6
2275.18
7806.22
32042.1
45572.9
56184.9
59661.5
64088.4
64687.6
72108.5
71185.3
67976.4
64009.2
56526
43849.5
20363.4
2279.27
2286.43
31500.6
45600.4
54164.3
59756
64166.7
64738.3
72274.8
71385.4
68214.3
64000.2
56959.8
44710
21553.4
2367.64
2309.98
31649
45800.5
53220.3
59850.5
64130.3
64683.8
72436.5
71572.9
68451.3
64317.7
57456.6
45432.9
22061.6
2275.3
2335.08
32006.3
46059.7
53324.2
59815.5
63943.1
64491.6
72595.6
71746.5
68665
65107.9
57949.5
46100.8
22641.9
2318.45
2331.76
32394.5
46304.2
54476.2
59688.5
63703.6
64260.6
72697.3
71826.9
69995.7
65307
58610.7
46981.9
27349.2
4294.36
2369.58
32738.4
46478.3
56485.4
62107.1
63383.8
63948.5
72796.6
71927.2
70039.4
67039.8
59497.9
48236
24037.8
2283.83
2393.72
35575.6
50969.3
59904
61857.2
63160.9
63754.1
72905.1
72059.1
70260.6
67180.3
63289.5
49167.4
24261.4
3166.4
18565.3
42298.9
56971.4
59931.7
61891.3
63080.8
63654
72995
72183.5
70376.7
67894
62417.2
58248.7
41588.4
2613.68
48870.8
56510.6
56891.8
60229.6
61976.7
63063.6
63618.4
73054.4
72272.3
70552.4
68323.5
63740.5
63086.1
56176.4
50755.1
58946.5
59624.7
58068.7
60659.1
62134.9
63103.6
63623.7
76792.4
76693.5
76428.6
77305.3
77891.1
88960.7
110946
107265
102580
80062.5
73596.7
71935
70836.5
70488.9
70430
76751
76612.4
76267.2
76952.9
77627.6
88287.3
125040
126273
97876.7
78216.2
72324.5
71427.3
70603.1
70432.2
70420.1
76700.5
76488.3
76161.3
75744.4
77025.7
73751
90893.4
99730.8
84202.7
69973.7
71252.5
70664.4
70429
70416.6
70447.9
76654.9
76384.1
75816.3
75343.1
71407.2
69048.1
68540
40797.6
50638.9
65304.2
66380.5
70220.5
70306.9
70496.4
70558.1
76680
76396.2
75793.3
72882.6
70701
63845.5
45006.3
3154.81
20674.5
54672.1
63198
67230.5
70533.3
70772
70787.4
76807
76499.9
74263.8
72837.8
68850.2
61824.4
40921.4
2313.8
13516.3
53596.3
61531.5
67445.2
68302.6
71041.1
71113.1
76929
76652.6
74427
73126.7
68479.8
62791.6
44950.4
2682.89
22727.1
55078.6
61987.4
65765.7
68569.3
71193.3
71236.2
77099.3
76856.9
74704.5
72368.4
69249
64837.8
56505.3
2316.41
26505.3
56353.5
62557
64924.5
68605.4
71105.3
71139.1
77265.2
77045.5
74975.6
72762.1
69973
66254.8
55066.3
26249.5
25837.4
57210.1
63112.9
65108.8
68470.2
70745.9
70795.7
77435.6
77242.2
75213.3
74356.4
70511.7
67114.1
54330.8
2300.28
28089.2
58934.9
63715.6
66222.3
68277.3
70372.2
70427.4
77544.1
77416.6
77204.2
74656.9
71892.5
67952
57178.4
9143.03
27428.4
59212.6
63882.9
67662.8
69950
70048.1
70030.6
77659.4
77544.9
77358.7
77541.1
74128.3
73560.4
61813.7
10894.1
29554.8
62011.6
67288
70045.8
69782.8
69788.9
69797.6
77781.3
77701.6
77669.3
77775.1
79847.8
75541.3
88164.5
94763.5
80553.5
69509.5
71247.2
70346
69840.5
69705.7
69691.3
77873.1
77854.3
77771.3
78920.5
80415.5
90566.9
132173
131406
98791.5
78701.5
72100.8
71015.2
69970.4
69711.5
69666.1
77934.1
77949.4
77943.1
79264.5
80687.8
91037
116834
114556
101428
80610.7
73246.9
71487.6
70159.8
69768.1
69681.8
81903.7
82439.2
83354.8
86412.1
89844.8
97022.2
114210
110066
107535
89902.5
84669.1
80685.4
78040.3
76855.7
76353.9
81883.6
82400.6
83344.2
86464.3
90819.7
97736.5
118074
115481
105707
90552.5
84312.6
80499.8
77949.7
76853.6
76375.3
81854.6
82270.9
83355.6
85452.9
90280.6
94735.2
109142
129180
106553
91407.7
83580
79960.8
77900.6
76894.8
76454.8
81812
82182.5
83035.4
85115.7
85976.2
93982.3
111941
142881
114311
90975.6
81994.1
79498.5
77896.6
77060.7
76646.6
81814.2
82145.7
82829.3
82721.2
85323.1
89466.9
104155
166915
111669
87539.5
80481.6
78211.8
78153.9
77466.8
76997.4
81892.4
82100.2
81365.9
82410.5
83507.6
87036.4
102346
161455
110713
86942.8
79745.5
78260.8
77148.1
77903.5
77491.9
81981.5
82177.1
81559.2
82407
82735.9
87223.8
101695
159721
119233
89532
80279.1
77570.4
77471.7
78286.5
77793.7
82126.7
82337.5
81789.9
81851.1
83143.6
88391.8
102812
145797
121519
91362.1
80850.1
77293.1
77332
78073.7
77614
82272.2
82505.4
82053.4
82199
83834.8
90187.1
110633
161080
112573
91821.4
81365.4
77283.8
76914.2
77307.6
76961.9
82439.9
82722.6
82290.4
83564.7
84490.7
91414.3
114128
77558.4
123375
97360.9
82339
77546.3
76497.1
76655.6
76362.5
82581.5
83023.7
84044.1
84229.7
85896.6
91803.3
112615
70728.3
121239
96841.1
82327.3
77976.1
77033.3
76304.8
75885
82712.2
83203.2
84358.2
86961.9
88325.6
97392.6
113978
169649
115539
92262.2
82329.5
78981.3
77012
76060.5
75634.1
82823.5
83344
84652.2
87131.2
92578.3
98023.5
115770
142386
112699
92813.6
83380.2
79432.4
77092.4
75998.5
75527.5
82884
83487.2
84613
87995.4
93049.9
99290.2
121845
120082
104947
90950
83954.1
79947.8
77180.7
76019.3
75505
82916.5
83524.2
84590.2
87778.5
91621.1
97571.7
113213
110140
106329
89952.5
84237.9
80142.3
77282.9
76059.3
75516.2
86221
86971.4
88061.5
90749.3
93880.5
94980.4
102154
104801
99955
91951.8
89442.1
85790.9
83271.2
81990.6
81323.6
86245.4
87003.8
88188.6
90980.8
94653.7
95788.9
100789
102051
99431.3
92839.2