/*--------------------------------*- C++ -*----------------------------------*\
| =========                 |                                                 |
| \\      /  F ield         | OpenFOAM: The Open Source CFD Toolbox           |
|  \\    /   O peration     | Version:  v2012                                 |
|   \\  /    A nd           | Website:  www.openfoam.com                      |
|    \\/     M anipulation  |                                                 |
\*---------------------------------------------------------------------------*/
FoamFile
{
    version     2.0;
    format      ascii;
    class       volScalarField;
    location    "0.009";
    object      p;
}
// * * * * * * * * * * * * * * * * * * * * * * * * * * * * * * * * * * * * * //

dimensions      [1 -1 -2 0 0 0 0];


internalField   nonuniform List<scalar> 
449343
(
100215
100363
100617
100890
101049
100933
100301
99089.9
97342.1
95251
93092
91127.4
89542
88442.1
87881.5
100192
100340
100594
100866
101026
100909
100279
99070.1
97326.1
95239.1
93082.9
91119.1
89533.2
88432.6
87871.5
100166
100314
100567
100839
100998
100882
100253
99048.7
97312.4
95233.7
93083.5
91121.6
89534.8
88432.6
87870.4
100138
100286
100539
100810
100969
100851
100225
99025.4
97299.4
95232.8
93092.1
91133.3
89545.1
88440.4
87876.7
100109
100257
100511
100782
100938
100817
100194
99001.3
97287.7
95235.3
93105.9
91151.1
89561.2
88453.5
87887.8
100081
100230
100485
100756
100912
100786
100164
98979.7
97277.5
95240.9
93121.2
91170.3
89578.7
88467.9
87900.3
100056
100205
100460
100731
100885
100758
100139
98959.4
97267.6
95244.2
93132.1
91185
89592
88479
87910
100033
100182
100438
100709
100864
100736
100117
98941.2
97254.3
95240.1
93133.5
91188.4
89595.8
88482.5
87913.3
100012
100162
100418
100690
100847
100719
100105
98931.3
97245.9
95228.3
93121.3
91177.9
89587.7
88476.6
87908.6
99994.1
100144
100400
100674
100834
100709
100096
98923
97232.4
95207.2
93096.5
91153.3
89567
88459.4
87893.3
99978.7
100128
100385
100661
100823
100704
100093
98916.6
97218.5
95181.4
93065.3
91121.2
89539
88436.2
87873
99964.9
100115
100372
100649
100815
100702
100092
98910.4
97203.6
95155.5
93031.1
91085.6
89507.2
88409
87848.4
99951.4
100101
100358
100637
100805
100698
100087
98902.2
97187
95129
92997.3
91050.8
89475.4
88380.8
87822.4
99937
100087
100344
100623
100793
100689
100078
98889.4
97167.7
95102.8
92966.6
91019.6
89446.4
88354.3
87797.3
99920.3
100070
100328
100607
100777
100675
100063
98872.5
97147.5
95079.2
92941
90993.9
89421.7
88330.8
87774.6
100058
100251
100598
101018
101355
101457
100960
99696
97712.4
95298.3
92852.5
90696
89003.8
87851.9
87270.8
100034
100227
100574
100993
101329
101434
100937
99675.5
97697.2
95288.8
92845.9
90689.3
88995.7
87842.5
87260.8
100006
100199
100547
100965
101296
101408
100908
99652.2
97684.7
95288.9
92852.8
90695.9
88999
87843
87259.8
99976.1
100170
100517
100934
101261
101374
100871
99620.1
97670.2
95295
92871.5
90714.6
89012.6
87852.2
87266.7
99945.9
100140
100489
100904
101226
101336
100829
99590.2
97650.9
95305.8
92900.4
90743.1
89033.7
87867.4
87279
99916.8
100112
100462
100879
101202
101296
100791
99565.1
97647.1
95319.3
92930.7
90775.5
89057.7
87884.6
87293.1
99890
100086
100438
100855
101174
101269
100765
99545
97642.8
95332.9
92962.3
90801.8
89077.2
87898.9
87304.8
99866.1
100063
100415
100834
101154
101244
100740
99475.6
97623.3
95329.7
92969.8
90810.1
89083.8
87904.5
87309.7
99845.4
100042
100395
100814
101138
101226
100729
99514.4
97622.6
95318.7
92953.8
90797.7
89075.9
87899.2
87305.8
99828
100024
100376
100796
101129
101210
100721
99508.5
97604.8
95288.9
92911.1
90764.8
89052.2
87882.4
87292.5
99813.6
100009
100360
100781
101117
101210
100724
99505
97585.6
95258
92867.3
90721.4
89020
87858.5
87272.5
99801.2
99995.8
100347
100769
101107
101218
100736
99506.1
97578.3
95224.3
92818.9
90676.4
88984.6
87830.6
87248.3
99789.3
99983.7
100334
100757
101099
101219
100741
99506.6
97563
95190.6
92775.2
90634.9
88950.2
87802.1
87222.8
99776.1
99970.4
100321
100744
101086
101215
100736
99495.6
97542
95158.4
92738
90599.8
88919.7
87775.5
87198.1
99760.1
99954.4
100305
100728
101070
101204
100723
99479.6
97520.9
95132.3
92709.7
90572.4
88894.5
87752.1
87175.7
99659.5
99954.5
100518
101286
102103
102707
102638
101245
98631.4
95367.2
92216.4
89624.3
87700.5
86438.4
85815.3
99633.6
99928.7
100492
101260
102077
102680
102610
101223
98618.2
95363
92215
89620.4
87693.4
86429.2
85805.1
99602.5
99898
100462
101231
102047
102645
102568
101197
98608.1
95378.4
92237.3
89635
87699.6
86430.5
85804.3
99568.3
99864.7
100431
101201
102014
102597
102505
101158
98580.8
95403.2
92284
89669.7
87719.1
86441.6
85812
99533.4
99831.4
100401
101172
101976
102535
102389
101052
98529.2
95447.9
92349.4
89720.1
87749.9
86460.7
85826.3
99500.1
99800.5
100374
101145
101947
102476
102325
101014
98535.2
95488
92438.7
89781.4
87785.6
86483.4
85843.5
99470.2
99772.1
100350
101130
101916
102452
102287
100989
98539.5
95512.9
92555.3
89836.5
87819.3
86503.7
85859.2
99444.7
99747.4
100326
101109
101896
102440
102283
100902
98523.3
95514
92574
89853.8
87832.2
86514.4
85868.3
99423.5
99725.3
100303
101083
101872
102408
102246
100955
98521
95501.1
92552.8
89839.7
87825.3
86511.4
85867.7
99407.6
99708
100282
101053
101858
102388
102249
100955
98498.9
95463.9
92433
89785.4
87794.6
86495.7
85857.5
99396.3
99694.6
100265
101039
101848
102412
102275
100963
98472
95413.1
92333.7
89718.3
87756.2
86471.9
85839.9
99387.8
99684.8
100253
101025
101844
102434
102368
101044
98498.5
95347.6
92251.7
89654.2
87714.6
86444
85817.7
99379.9
99676.1
100242
101014
101838
102446
102396
101051
98493.8
95294.9
92180.3
89597.9
87676.3
86415.9
85794
99370
99666
100232
101004
101830
102446
102402
101042
98469.4
95246.7
92127.3
89555.1
87643.9
86389.8
85770.7
99355.8
99651.8
100217
100990
101817
102436
102393
101028
98446.2
95214.9
92093.7
89525
87618
86366.8
85749
98894.2
99336.7
100221
101535
103194
104865
105904
104296
100279
95220.9
90869.8
87670.3
85472.7
84100.6
83443.9
98864.8
99307.5
100193
101507
103167
104836
105862
104269
100267
95223.8
90874.4
87668.3
85465.5
84090.9
83433.2
98827.3
99270.5
100157
101476
103138
104799
105805
104247
100278
95282.4
90921.3
87690.5
85472.9
84092.1
83431.9
98784.5
99229.1
100121
101448
103104
104741
105618
104227
100233
95408.8
91028.6
87743.1
85496.8
84104.4
83440.1
98740.4
99187.8
100088
101427
103087
104634
104749
103815
100842
95577.2
91177
87827.7
85536.2
84126.7
83456.4
98698.7
99149.6
100063
101425
103065
103807
104614
103751
100901
96734.9
91405.6
87934.3
85586.5
84154
83477.3
98662.4
99118
100042
101423
102435
103820
104535
103687
100886
96805.3
92605.5
88015.4
85633.4
84181.3
83498.1
98632.9
99091
100018
101400
102396
103804
104546
103583
100859
96822.6
92614
88039.2
85658.5
84200.5
83513.1
98612.5
99067.2
99989.9
101370
102370
103770
104484
103626
100857
96807.6
92614.7
88033.1
85652.1
84202.3
83519.8
98600.7
99050.9
99962.9
101322
102957
103712
104479
103643
100847
96773.1
91426.8
87965.4
85621.6
84192
83516.5
98596
99042.7
99941.7
101279
102943
104500
104592
103690
100832
95567
91197.2
87862.3
85578.2
84173.1
83504.8
98595.7
99039.6
99930.6
101257
102915
104553
105463
104107
100170
95386.1
91036.1
87769.2
85533.9
84148.4
83487.3
98595.7
99038.7
99925.8
101246
102912
104576
105622
104098
100174
95226.7
90902.5
87696
85494
84122.8
83467.1
98592.1
99034.9
99921.1
101239
102908
104590
105634
104085
100128
95133.8
90823.9
87645.6
85461.7
84098.7
83446.5
98581.4
99024.3
99910.4
101228
102897
104579
105644
104075
100104
95094.2
90783.5
87613.6
85436.4
84077
83426.4
97577.1
98177
99427.3
101421
104283
108015
111771
109582
102812
94154.5
88136
84442.5
82127.3
80769.4
80148
97542
98141.7
99392
101386
104250
107979
111714
109548
102805
94171.1
88143.5
84436.8
82116.7
80757.4
80135.5
97493.6
98093.2
99344.5
101347
104231
107956
111654
109510
102874
94269.5
88206.7
84452.8
82117.9
80755.1
80131.4
97435.8
98035.8
99291.8
101325
104269
107936
109336
109513
104285
94769.3
88431.6
84521.1
82135.7
80763.7
80137.2
97374.2
97976.3
99250.2
101322
104320
106407
109272
109400
104424
96947.4
88688.8
84612.2
82173.4
80782.9
80152.6
97315.2
97924.3
99223.1
101400
103382
106465
109192
109226
104399
97266.6
90825.4
84777.5
82214.1
80812.6
80174.9
97264.6
97872.6
99173.4
100848
103383
106455
108208
108443
104590
98203
91105.8
86567.7
82234.6
80830.9
80198
97231.5
97840.8
99189.3
100793
103361
106410
108160
108387
104597
98281.1
91239.1
86668.8
82345.6
80856.9
80226.2
97210.3
97816
99110.8
100758
103323
106380
108109
108357
104556
98267.8
91213.9
86664.2
82269.9
80871.4
80239
97210.4
97818.2
99113.6
101281
103251
106332
108150
108369
104536
97336.6
90980.5
84849.4
82289.7
80889.1
80251.4
97220.9
97820.6
99089
101153
104143
106228
109053
109133
104300
97156.3
88778.5
84707.8
82270.5
80881.9
80252.4
97236.7
97834.6
99086.2
101113
104052
107715
109079
109316
104345
94812.1
88507.6
84611.9
82235.7
80869.3
80245
97251.3
97849.4
99098
101097
103983
107713
111417
109343
102783
94261.5
88249
84522.7
82205.1
80851.9
80232.6
97258.5
97857.2
99106.2
101100
103970
107710
111452
109341
102682
94125.4
88150.9
84478.2
82180
80833.5
80217.5
97253.5
97852.8
99102.7
101097
103967
107713
111479
109342
102652
94068.9
88105.9
84449.3
82158.4
80814.9
80200.2
95482.1
96186.7
97719.8
100349
104557
111394
117157
123139
110340
89963.2
82858.2
79407.9
77419.2
76378.3
75939.4
95438.9
96141.9
97672.4
100300
104509
111334
117092
123077
110308
89971.3
82853.7
79388.7
77400.4
76361.3
75923.3
95374.1
96074.7
97600.4
100221
104452
111293
116986
122950
110246
89960.2
82830.5
79349.7
77382.3
76349.4
75912.7
95292.2
95990
97510.4
100150
104612
109036
116965
122872
110219
94287.7
83027.6
79308.1
77368.8
76347.2
75911.3
95200.9
95890.3
97401.3
100102
103412
109149
116970
120229
111393
95187.5
86267.3
79332.5
77337.5
76345.3
75920.8
95114.1
95785.1
97352.5
99688.7
103396
108143
115016
119014
111499
97532.3
86608.9
81718.4
77328.2
76347.9
75940.2
95037.7
95691
97270.7
99644
103388
107996
113966
118759
111856
98551.3
88375.8
81877.6
77292.9
76343.9
75960.9
94985.6
95619.7
97295.1
99636.8
102798
107472
113814
118566
111772
98596.7
88468.2
81991.7
79185.6
76361.5
75992.6
94977.7
95631
97205.5
99583.3
102761
107852
113760
118506
111732
98594.2
88478.3
81963.4
77372
76415
76030.6
95001.2
95666.5
97227.8
99514.2
103272
107892
113799
118613
111778
98587.4
88417.3
81926.7
77465.8
76479.6
76069.6
95037.6
95722.5
97220.7
99904
103141
108932
114753
119793
111432
97470.9
86628.3
79520.7
77518.2
76520.1
76091.8
95081.8
95775.6
97287.2
99910.3
104348
108762
116639
122580
110166
94658.3
83203.8
79494.8
77559.2
76538.3
76101.7
95120.1
95817.4
97336.6
99947.6
104165
110998
116646
122640
110179
90038.8
82964.9
79512.9
77561.7
76536.3
76102.4
95143.7
95844.3
97370.2
99992
104195
111022
116752
122782
110173
89997.2
82946.9
79520.4
77555.6
76529.2
76096.5
95147.1
95849.8
97379.4
100005
104211
111055
116820
122858
110177
89942.9
82910
79502.9
77541.6
76515.9
76083.8
92412.3
93072.5
94564.8
97305.2
101972
108567
124655
155173
115410
82819.8
73046.3
71833.9
71182.9
70999.2
70960.8
92359.1
93015.2
94499.3
97226.2
101876
108483
124516
155053
115377
82812.3
73019.8
71793.9
71154
70975.7
70939.8
92273.3
92919.4
94384.7
97065.2
101655
108306
124177
154751
115316
82817.2
72845.5
71694.9
71111.2
70948.1
70920.2
92157.7
92786.4
94214.7
96721.1
101015
108439
123789
154152
115120
83010.4
76239.7
71413.9
71050.7
70924.2
70908.5
92017.8
92612.1
93921.7
96721.7
100833
107378
120703
153401
116347
87123.1
76200.8
73692.6
70918.8
70903.8
70910.5
91870.6
92377.8
94330.5
96634.7
100468
107039
118906
147703
121099
89397.5
78660.8
73747.6
72654.5
70885.2
70932.8
91775.5
92267.7
94251.5
96506.1
100340
106460
118336
146758
121265
89772.8
80067.9
75399.3
72631
70923.6
70967.7
91690.4
92185.7
94248.7
96458
100219
106254
117933
145986
121240
89997.4
80201.9
75514.6
72765.9
70963.3
70984.8
91712.2
92203.9
94176.6
96438.7
100195
106193
117827
145745
121049
89939.4
80219
75561.7
72773.3
71030.7
71075.9
91743.6
92238.3
94187.4
96397.7
100243
106292
118068
146254
121004
89746.1
80150.3
75548.3
72829.3
71088.1
71131.7
91846
92436.1
93718.5
96462
100472
106881
118567
147182
121070
89588.1
78967.9
73994.2
71225.4
71181.7
71175.3
91935.6
92558.2
93973.5
96452.2
100544
107865
120420
153058
115693
87583.9
76570.1
71748.9
71368.9
71228.9
71206.4
92007.5
92648.6
94102.9
96767.8
101329
107887
123581
153934
115311
83142.8
73120.4
71990.8
71415
71252.4
71223.6
92052.9
92705.1
94180.8
96895.8
101527
108058
123987
154492
115266
82941.3
73238.1
72048.6
71429.8
71261.2
71228.9
92066.9
92723.8
94209.3
96940.4
101593
108163
124216
154749
115246
82846.1
73213.5
72046.8
71423.6
71254
71221.5
88325.6
88691.7
89524.6
91098.3
93700.8
99870.4
106504
102066
25704.6
53585.2
58833.2
61891.6
63841.2
65074.4
65641.4
88264.2
88624.4
89446.4
91000.3
93585.4
99743
106363
101803
25542.1
53595.4
58785.6
61851.6
63812.8
65047.1
65616.1
88161.6
88505.8
89307.9
90839.4
93353.3
99451.6
106007
101260
25758.8
53677.4
58686.4
61839.3
63783.1
65015.4
65591.3
88018.6
88326
89077.5
90427.9
94489.4
98823.9
105346
100271
26732.3
54044.7
60213.1
61907.2
63787.9
64998.9
65580.6
87843.3
88099.5
88759
91408.4
94005.8
98962.9
105657
98841.2
28426.7
57874.2
62012.3
63368.9
63901.2
65040.7
65597.8
87625.5
87874.1
89756.7
91130.6
94351.8
98953.6
104788
97092.8
30352.9
59068.4
63402.3
63646.1
65070.9
65174.2
65649
87538.1
87769
89619.7
90931.6
94459.6
98549
104026
95450.4
36350.6
60402.7
63916.7
64883.1
65112
65284.6
65720.4
87452.2
87674.1
89515.8
91536.9
94304.8
98275.9
103506
94219.8
40204.8
61225.6
64206.3
65489.5
65298.4
65358.3
65773.6
87465.7
87692.2
89491
91492.2
94254.9
98201.2
103373
93912.7
39517.8
60963.8
64167.6
65538.4
65338.1
65439.2
65870
87507.5
87747.6
89549.6
90845.4
94312.4
98348.4
103683
94623.4
35696.6
60095.6
63941.9
65075
65330.8
65465.8
65927.4
87652.4
87902.7
88542.8
91028.2
94174.9
98677.6
104356
96142.1
33187.4
59514.4
63695.5
63917.4
64348.5
65436.6
65974.6
87783.5
88081.6
88819.4
90138.9
93954.7
97976.1
104215
98152
30558.4
57128
60809.7
62428.1
64266.2
65442.4
66008.6
87886.1
88223.5
89011.3
90523.9
93007.9
98745.2
105083
99749.9
27146.1
54266
59136.8
62302.3
64241
65462.7
66031.9
87950.1
88305
89116.4
90655.5
93222
99231.5
105688
100822
25919.5
53898.5
59143.7
62255.4
64235.4
65474.6
66044
87973.1
88334.9
89159.4
90721.6
93310.1
99423.9
105992
101371
25318.5
53731.5
59125.6
62245.5
64224.6
65470.1
66041
83507.2
83347.6
83011.5
82532.3
82279.4
85848.6
88975.2
101749
3654.36
33062.5
45728
52496.2
56976.3
59601.7
60787.2
83444.6
83280.1
82938
82450.2
82200.4
85747
88857.6
101452
4529.82
33097.4
45675.5
52471
56947.4
59568.1
60754.3
83343
83169.3
82826.3
82358.9
82055.5
85533
88579.1
101118
3440.51
33235.6
45756.3
52507.9
56919.8
59533.4
60719.8
83204.3
82999.3
82625.6
82281.2
84618.1
85321.1
88104.1
100533
5324.44
33785.4
45980.6
52744
56968.1
59532.1
60707.5
83046.5
82818.2
82522.8
84046.5
84449.8
86790.2
88671.4
99754.8
6877.85
34372.2
46927.9
53518.4
57094.9
59600.9
60736.1
82874.8
82721.9
83825.9
83861.6
85403.6
87226.5
88124.2
98358.1
20192.5
35700.2
47695.2
53709.5
57753.6
59718.2
60802.2
82793
82645.6
83640.7
83727.5
85818.4
86876
87556.8
97137.5
17775.6
37143
47946.5
54280.8
57832
59818.2
60878.7
82713.4
82560.6
83522.2
84533.3
85661.1
86621.6
87149.3
96134.4
2327.22
38412.7
48049.6
54526.7
57992.3
59917.1
60959.6
82717.9
82565.6
83490.9
84486.5
85600.6
86538.8
87038.2
95909.1
2304.49
37552.5
47934.7
54605.8
58109.7
60030.4
61077.9
82743.5
82581.6
83550.2
83638.2
85635.5
86651.7
87267.6
96797.4
3274.38
35429
47765.4
54595.8
58178.6
60111.2
61172.3
82853.6
82616
82302.3
83647.8
85190.7
86920.1
87746
98112.3
3637.81
35306.5
47920.1
54198.7
57700.5
60132
61241.5
82965.2
82750.3
82359.2
81983.3
84193.9
84927.8
87557.7
99443.1
8070.65
35290.4
47149.6
53461.1
57631.6
60135.8
61284.8
83063.9
82882.5
82517.7
82033.8
81709.3
85031.8
87830.8
100192
3869.85
33999.5
46417.9
53169
57556.2
60144.7
61316.7
83128.5
82957.1
82604.1
82103.8
81842.4
85267.6
88254
100755
2853.32
33578.9
46206.4
53049.8
57540
60158
61339.7
83153.9
82989.7
82645.8
82156.8
81896.2
85419.4
88492.2
101057
3167.47
33359.8
46180.4
53014.9
57524.3
60157.8
61344
78662.4
77915.9
76377.9
73987.9
73506.5
72145.7
74375
2295.41
25329.8
38928.9
46904.6
52498
55854.1
57427.3
78602.2
77852.1
76312.8
73927.5
73452.3
72081.8
74301.2
2290.79
25334.9
38855.9
46861.5
52442.9
55798.3
57373
78513.2
77763.1
76224.2
73847.1
73386.3
71986.5
74139
2302.09
25293
38928.2
46800.8
52343.1
55719.2
57296.4
78402
77645.8
76071.4
73862.4
73545.5
71832.8
73864
3516.19
25627.7
37745.7
46861.1
52278.4
55656.2
57229.5
78293.1
77532
76093.6
75854.7
73951.6
73643.3
74298.9
5175.38
23948.3
37236.9
46271
52230.7
55639.4
57196.7
78176.6
77512.7
77429.8
75939.4
75041.3
74366.9
74088.7
2274.48
23265.7
36548.8
46034.8
51903.6
55588
57208.7
78097.6
77433.7
77319.4
75884.2
75598.9
74169.5
73792
6071.1
22057.4
35398.4
45622.8
51861
55599.8
57241.2
78028.5
77366.4
77227.1
76626.8
75560.6
73954.3
73478.6
2452.3
16981.9
33947.8
45235.1
51925.8
55711
57334.9
78024.3
77351.2
77194.1
76583.4
75483.1
73839.6
73333.9
2317.38
19828
34396.9
45473.6
52165.8
55896
57506.1
78036.1
77358
77222
75747.8
75385.5
73857
73388.3
2463.08
19079.2
35588
46313.1
52468.2
56126.8
57697.6
78095.6
77317.8
75847.2
75559.8
74731.1
73945.9
73574.1
2385.63
21296.4
37009.7
47033.6
53066.1
56348.3
57854.5
78162.1
77393.5
75796
73547.6
73248.6
71519.5
73055.8
2251.67
25591.9
39057.5
47886.2
53173.3
56448
57975.6
78237.8
77478.2
75917.9
73520.8
73016.8
71545.8
73559.7
3919.39
26120
39844.4
47698.9
53188.2
56516
58066.1
78293.1
77537.4
75985.8
73590.4
73111.1
71686.7
73820.4
2295.83
25808.4
39569.4
47641
53227.8
56567.9
58130.5
78316.3
77565.5
76022.4
73625.8
73127.1
71762.4
73963.8
2293.54
25686.6
39536.5
47606.3
53228.6
56586.1
58155
74705.2
73393.8
70658.1
65999.3
63527.7
55910
51760.4
2305.92
2300.53
25211.2
37178.4
45478.3
51186.6
54667.2
56347.8
74644.4
73330.5
70587.7
65931
63466.7
55848.4
51717.8
3148.48
2301.56
25444.6
37037.8
45391.9
51080.1
54568.5
56253.9
74551.8
73237.6
70481.8
65792.6
63375.8
55728.9
51610.4
2930.24
2329.85
22537.5
37073.6
45149.2
50851
54393.6
56093.1
74437.4
73128.1
70310.8
65675.1
63270.6
55573.4
51533.6
2914.23
3623.71
22645
34027.6
44784.8
50548.6
54176.7
55903.2
74329.5
72994.8
70138.6
68478
62943.5
58389
53459.4
2297.24
2314.49
17689.5
31795.9
42454.4
50172.2
53966.3
55719.6
74210.5
72848.3
71941.4
68223.4
64743.4
59659
53913.5
2767.94
2447.72
11945.9
29034.3
41535.5
48577.8
53712.7
55588.1
74108
72724.4
71794.5
67940.2
65399.3
59448.5
53700.6
1946.73
2283.35
6032.9
25574.3
39778.4
48250.3
53610
55533.1
74033.1
72648.6
71681.9
69220.6
65199
59128.1
53050.4
8715.41
2299.44
2302.91
22249.5
38604.5
48239.1
53709.7
55623.2
74031.7
72634.4
71654.2
69178.1
65093.7
58947.2
52779.5
4047.41
2297.9
2317.46
23711.2
39121.8
48601.4
53987.2
55864.2
74064.8
72681.7
71721.6
67808.2
65134.1
58933.4
52758.7
2609.09
2273.45
2568.49
27458.8
41116.6
49208.3
54393.6
56199
74131.4
72773.4
69867.5
68123.2
64396.8
59024.5
52800.8
2621.73
2241.69
13580.3
31064.9
43356.4
51277.1
54862.2
56536.4
74203.4
72879.2
70032.6
65353.8
62756.9
55125.6
51121.9
2381.9
6616.18
22148
35660.7
46197.2
51696.1
55170.3
56826.4
74287.8
72964
70189
65481.6
62950.6
55312.6
51216.9
3119.65
4144.61
23891.3
38335.5
46308.8
51927
55388.6
57044.5
74350.9
73032.1
70282.4
65619
63123.9
55495
51369.7
2901.94
2300.09
26024.6
37956.5
46387.6
52070
55527.8
57191.4
74378.2
73063.9
70326.8
65667.5
63181.5
55592
51469.4
2268.25
2299.23
25626.4
37961.2
46371.7
52109.3
55583.6
57253.7
72496
70711.7
66940.3
60415.8
49460
39909.8
16336.4
2241.09
2310.02
27108.7
39182.7
47352.5
52846.9
56183.8
57788.3
72422.3
70635.8
66853.4
60330
49391.2
39825.2
16293.2
2213.81
2318.41
27284.5
38990.6
47207.1
52678.5
56033.9
57647.9
72302.6
70513.6
66709.5
60173.7
49228
39482.5
16250.7
2200.69
6576.34
22918.5
38923.1
46815.2
52329
55746.8
57387.1
72147.9
70370.3
66505.4
60000.7
53742.8
39227.6
16178.8
2244.98
6603.33
22848.7
34311.8
46121.4
51752.9
55334.8
57041.6
71992.1
70202.8
66317
62480.3
53701.9
43155.7
22936.3
2291.24
2149.94
15883.9
30627.1
42225.5
51090.8
54878.8
56671.6
71833.6
70007
67765.9
62267.9
55775.2
45177.6
25602.4
2300.09
2287.8
2285.99
25888.7
40678.9
48303.6
54464.5
56369.3
71695.2
69836.2
67636.8
61989.1
56493.7
44882.3
24698.7
2260.26
2297.33
2130.09
20937.5
37687.6
47673.6
54238
56221.5
71609
69741.4
67513.3
63231.7
56180.9
44349.5
23402.4
2294.84
2306.29
2194.28
17556.2
35960.9
47558.8
54311.8
56303.3
71617.5
69741.6
67481
63166.6
56048.4
44118.8
23161.4
3467.38
2290.71
2207.43
19287.9
36595
48025.9
54683
56614.3
71690
69837.4
67553
61844.1
56137.2
44148.4
23190.1
2314.92
2224.58
2215.28
24235.8
39438.2
48935.2
55278.2
57097.3
71803
69988.6
66044.5
62144.1
55327.6
44265.3
23229.4
2270.2
2161.84
12450.1
29270.9
43157.9
52382.3
55948.9
57641.3
71930.3
70136.4
66238.8
59691.3
53368.6
38934
17645.8
2322.63
6128
21374
35817.4
47760.5
53127.7
56520.4
58137.1
72061.1
70262.5
66441.8
59888.1
48950.3
39151
16063.7
2207.37
7916.81
24280.1
40374.2
48218.5
53623.8
56934.8
58517.8
72155.6
70364.6
66576.2
60050.2
49128.5
39481.5
16162.2
2221.96
2323.5
27998.8
40133.3
48420
53874.3
57184.1
58766.2
72198.4
70411.8
66639.9
60122.1
49194.5
39660.5
16205.3
2225.77
2307.1
27705.2
40209.4
48453.9
53968.4
57287.2
58873.2
72752.2
70812.7
66642.4
59624.8
47478.5
35568.1
2543.77
2212.25
12796.7
33711.5
44981.8
52395.2
57294.3
60203
61581.7
72657.2
70714.6
66531.8
59499.1
47483.6
35313.4
2467.12
2231.63
13319.7
33526.6
44694.7
52163.7
57054.8
60002.6
61398.6
72498.3
70549.1
66342
59163.3
47823.3
33800.1
3468.91
2287.64
9671.36
26917.7
44203.2
51581.5
56590.8
59618.4
61055.9
72293
70356.3
66127.6
58996.4
50397
33341.5
7485.55
2287.68
7945.4
26024.6
38367
50591.8
55798.6
59058.8
60590.7
72083.3
70148.4
65933.5
60448.1
50116.5
36588.3
16132.1
2298.45
2299.22
17786.8
33527.4
45576.3
54902
58419.9
60083.7
71882.1
69928.1
66553.1
60051.6
51430
37806
17494.7
2291.6
2316.28
7611.25
28193.3
43635.8
51278.6
57921.5
59655.7
71705.9
69706.3
66335.1
59681
51749.8
37229.8
15935.3
2239.05
2305.55
2258.2
23912.8
39922.3
50451.8
57611.5
59448.3
71610.2
69587.8
66185
60484.8
51294.1
36557.4
15269.8
2271.91
2297.64
2206.58
21151.9
37986.4
50283.6
57678.5
59534.9
71631.4
69610.5
66167.7
60409.6
51145.3
36326.6
15082.9
2279.61
2305.34
2144.58
22547.2
38681.3
50847.4
58131
59901.8
71750.3
69766.4
66265.4
59586.7
51364.8
36599.7
15397.2
8524.56
2271.27
6275.7
27254
42041.4
51973
58870.1
60503.3
71915.6
69953.9
65676.4
59999.9
51001.1
37037.9
15748.9
2271.91
2276.07
17665.2
32381.1
46795.9
56468.5
59686.7
61207.9
72105.1
70151.1
65887.8
58710
49895.9
33718.5
15245.3
2315.33
7857.4
24529.8
40041.5
52606.5
57445.6
60443.1
61857
72292.3
70333.1
66107.6
58896.2
47561.8
33180.4
4971.1
2289.09
9875.2
28291.9
46014.7
53302.6
58125
61002.2
62361.4
72429.8
70482.3
66290.6
59248.5
47236.2
35142.7
2467.03
2247.15
13860.7
34845
46151.2
53629.8
58469
61341
62689.6
72495.6
70553.7
66380.7
59371.8
47234.9
35415.3
2527.93
2238.39
13972.5
35247.3
46288.4
53721.8
58620.4
61488.5
62837
75839.5
74226.9
70696.8
64891.2
53537
37895.6
2300.82
2303.69
23213.6
46269.8
54826.2
60772.2
64387.3
66432.9
67397.7
75717.1
74093.7
70542.4
64656.7
53406.5
37704.5
2301.36
2304.12
23924.9
45867.8
54523.6
60455.7
64087.5
66196.2
67185.8
75508.6
73861.4
70278.7
64091.7
54492.2
37478
9418.93
2311.56
15389.5
36561.2
53981.1
59745.6
63530.5
65750.2
66796.5
75241.9
73573.1
69923.9
63697.3
54139.9
37299.8
9855.24
2312.7
12607.1
34987.9
47039.1
58622.3
62620.9
65115.8
66270.5
74963.7
73267.3
69559.6
63425.2
53384.4
38555.1
16678.7
2427.95
7932.96
25457.5
41287.6
52775.3
61625.7
64399.7
65709
74702.3
72982
69084.7
62657.6
53285.4
38541.1
15919
2267.82
2216.87
16841.2
35484
50589
57373
63880.2
65264.5
74478.5
72693.7
68643.3
62018.9
52758.7
37184.8
15007.1
2286.08
2302.99
7968.51
31511.7
46538.9
56530.8
63570.8
65048.9
74372.1
72550
68396.2
62072.3
51896.2
35740.7
13902
2285.87
2285.14
2296.21
29313.1
44569.3
56392
63664.9
65153.5
74413
72603.1
68401.4
61977.8
51660.9
35195.3
13112.6
2317.54
2273.57
6771.21
30913.4
45427.4
57032.1
64170.3
65561.8
74592.7
72840.3
68633.6
61999.3
52234.4
36303.2
14770.4
2278.74
2102.33
16730
35704.3
49112
58292.3
64977.1
66213.4
74832.3
73109.2
69336.8
62728.9
52896.3
37860.5
16716.5
5412.06
25394.7
28516.2
40999.1
54474.6
63514.2
65854.7
66970.1
75099.6
73415.3
69730.3
63439
53412.1
37117.4
15335.9
2311.32
12598
34377.8
49496.6
61161.7
64560.5
66688.4
67687.2
75353.5
73698.3
70098.6
63880.1
54220.7
37440.9
9564.98
2309.71
15319.4
38095.7
56344.3
61843.3
65309.2
67314.7
68253.5
75542.9
73915.8
70354.7
64449
53174.3
37424.8
2301.17
2304.07
23665.3
47362.1
56223.6
62184.9
65712.2
67701.9
68624.4
75636.9
74022.6
70486.8
64671.1
53304.6
37647.7
2300.38
2303.33
24190.2
47885.2
56222.2
62307
65901.3
67877.3
68797.3
81426.7
80562
78574.7
75601.6
67843.1
58777.7
2489.28
2330.24
49336.8
66976
69413.1
72374.1
73643.4
74349.6
74711.5
81272.4
80380.7
78352
75194.5
67398.8
57963.5
2479.51
2332.82
49306.9
66488
69089
71964.2
73310.4
74096.8
74487.2
81007.9
80068.2
78037.5
74425.6
69200.8
52830.9
19538.6
2373.91
30853.7
55036.4
68839.4
71162.6
72711
73632.9
74085.2
80667.2
79664.4
77474.5
73864.6
64946.1
51164.1
22340
2331.9
26149.1
53182.8
61210.1
70026.8
71790.6
72990.6
73550.4
80311
79242.8
76943.4
71351.8
63848.3
50289.7
26406.4
2289.54
34080.5
42344.7
54925.5
63745.5
70814.7
72283.2
72992.7
79994.7
78893.9
75016.9
70244.1
61971
48533.2
28579.6
10818.8
12789.1
33044.1
48631.9
61753.2
66304.4
71808.4
72587.2
79730.6
78563.3
74405.7
69336.6
60224.2
45113.8
20619.1
2304.64
2295.79
22290.4
44642
57541.4
65566.9
71554.8
72396
79619.2
78409
74095.4
68391.4
58615.6
40974.8
11464.3
2291.16
2197.88
16999.1
43022.4
55614
65570.8
71678.8
72517.6
79684.3
78493.4
74131
68301.1
58204.4
38931.7
2434.76
2299.14
2234.05
21983.9
45026.7
56603.4
66230.5
72174.4
72926.1
79925.2
78797.8
74486.8
69448.7
59485.6
42744.4
15781.2
2342.97
4836.33
33455.7
49862.2
60434.9
67443.6
72947.3
73574.7
80237.2
79154.1
76819.8
70446.4
61659.7
47071.7
23314.6
2358.2
39127
46996.8
55373.5
66021.7
72853.9
73822.1
74319.3
80590.7
79584.1
77383.1
73752.8
64085.2
50399.1
23724.3
2316.75
45715.8
54814.6
64769.7
72802.7
73875.7
74664.1
75046.7
80921.3
79981.9
77949.1
74321.8
69057.2
51777
21408.2
2346.8
32060
57877.9
71657.1
73511.8
74645.5
75305.9
75629.2
81166.4
80276.8
78248.3
75074.5
67268.4
57574.9
2443.58
2331.65
49882.6
68475.4
71104.3
73930.7
75086.8
75710.1
76015.6
81291.7
80429.8
78443.2
75447
67688.4
58400.1
2491.72
2331.79
49607.4
68558.6
71095
74139.7
75306.2
75900.8
76201.5
88529.9
88700.1
89024.8
91266.9
94235.5
111701
170105
159761
122779
98109
88650.9
86035.4
83962.2
83058.1
82711.3
88344.9
88456.1
88687.6
90532.9
92921.3
109816
164428
161698
121896
97592.5
88015.8
85493.1
83609.6
82799.5
82486.7
88028.2
88029.4
88175
88628.7
91122.7
86549.1
90721.3
119902
112170
88917.7
86671.4
84284.8
82959.6
82331.7
82090.7
87620.6
87515.2
87339.4
87551.3
83206.7
80647.4
73073.7
46617
79783.5
83190.3
80597.3
82894.5
82029.6
81704.8
81574.6
87200.8
86986.1
86582.2
83279.8
81293.7
74084.7
56435.9
2298.8
47617.1
67161.7
73909
77662.3
81015.1
81032.4
81042.6
86852.4
86520.9
83726.8
81983.9
77204.3
69341.2
47866.3
6072.31
20706.4
57193.2
67950.1
76046.9
77278.4
80523.2
80682.1
86577.7
86188
83097.8
81061.4
74419.9
65181.6
42845.8
2517.31
7145.71
49491.6
64979.2
72355.6
76739.4
80319.1
80517.6
86479
86067.5
82805
78930.8
72668
59143.4
18752.8
2490.7
2200.1
45481.7
64117.2
70636.7
76835.3
80456.3
80643.6
86565
86170
82885.4
78932
72374
56822.9
2303.44
2302.96
9181.81
51118.8
66117.4
71594.4
77420.3
80897.4
81019.1
86843.1
86509.9
83314.8
81411.1
74095.2
63419.7
35339.6
2227.13
26794
60740.9
70167.6
75080.9
78448.6
81607
81628
87204.6
87004.1
86643.8
82569.2
77592.4
69481.5
49461.3
2337.46
37136.1
71120.9
74811.7
79845.5
82976.4
82521.5
82337.7
87626.2
87540.2
87412.3
87727.3
82363.7
79655.3
58638.9
22843
59260.5
81974.5
84185.5
85576.2
84070.8
83352.9
83051
88022.4
88039.5
88219.9
88718.5
91297.9
82746.9
74389.5
109945
111681
91643.4
89761.1
86692
84908.6
84003.5
83629.3
88316.8
88440.1
88695.7
90540.6
92872.9
109588
162446
158761
123918
100145
90266.9
87548.3
85416.6
84424
84020
88470.9
88650.8
88995.1
91216.8
94063.4
111721
169629
157499
122807
99830.9
90452.7
87871.9
85660.2
84626.4
84211.2
95715
96791.4
98921.4
104598
114117
124834
163189
195012
142648
116810
105086
97993.5
93423.7
91304.9
90360.7
95529.7
96537.6
98616.1
104095
113249
125392
166621
191459
141825
116302
104399
97529.2
93112
91061.1
90153.5
95202.5
96034.7
98076.2
102017
110504
119344
155166
196490
145505
117137
102450
96134.5
92479.2
90603.3
89784.3
94774.4
95480.9
97100.3
100654
102749
115787
145257
203072
144335
112264
99579.8
94604.2
91565.9
90001.4
89306.5
94323.8
94859.6
96093.6
96271.6
100113
105679
121637
189290
122093
102855
95042.1
91454
90515.2
89339.4
88801.7
93951.9
94290.2
93378.4
94758.2
96086.1
99826.1
113264
164113
108543
96127.3
91213.7
90088.5
88242.1
88809
88451.2
93695.7
93962.2
92924.3
93840.5
93340.5
97605
114309
180859
101769
93756
89944.2
88229.7
87914.5
88621.3
88304.9
93623.6
93883.3
92684.8
92055.1
92132.7
94801.6
102907
175300
96328.5
94381.2
90261.4
87661
87933
88740.6
88423.8
93716.8
93994.5
92814.6
92149.7
92287.6
95262.2
102246
145187
103504
96764.4
91454.1
88354.3
88418.9
89116.4
88752.6
93998.2
94352.8
93242.7
94376.5
93891.8
99841.7
131974
189572
120261
100855
93466.6
90210.4
89287.1
89750.9
89304.6
94400.1
94973.1
96309
95944.9
97236.6
102369
121729
184375
137776
106601
96429.7
93217
92251.4
90682.1
89988
94857.7
95604.7
97329.9
101107
102478
114576
135021
223553
146143
114443
102196
97140.1
93445.2
91523
90677
95274.3
96139.1
98260.9
102348
111128
119519
157857
208183
154017
121515
105431
98426.7
94312.4
92171.5
91230.1
95577.5
96609
98745.7
104307
113421
126172
167084
194896
145223
119073
106626
99489.6
94821.7
92597.3
91604.5
95731.5
96827
99006.7
104754
113985
125352
164121
188838
144518
118838
106822
99772.4
95041.5
92795.5
91785.5
101559
102890