/*--------------------------------*- C++ -*----------------------------------*\
| =========                 |                                                 |
| \\      /  F ield         | OpenFOAM: The Open Source CFD Toolbox           |
|  \\    /   O peration     | Version:  v2012                                 |
|   \\  /    A nd           | Website:  www.openfoam.com                      |
|    \\/     M anipulation  |                                                 |
\*---------------------------------------------------------------------------*/
FoamFile
{
    version     2.0;
    format      ascii;
    class       volScalarField;
    location    "0.009";
    object      p_rgh;
}
// * * * * * * * * * * * * * * * * * * * * * * * * * * * * * * * * * * * * * //

dimensions      [1 -1 -2 0 0 0 0];


internalField   nonuniform List<scalar> 
449343
(
100078
100226
100480
100752
100912
100795
100164
98952.5
97204.7
95113.7
92954.7
90990.1
89404.6
88304.8
87744.1
100074
100222
100476
100748
100908
100792
100161
98952.4
97208.4
95121.4
92965.2
91001.4
89415.5
88314.9
87753.7
100068
100216
100469
100741
100900
100784
100155
98950.6
97214.3
95135.6
92985.4
91023.5
89436.7
88334.5
87772.3
100059
100207
100461
100732
100890
100773
100146
98946.9
97220.9
95154.4
93013.6
91054.8
89466.6
88362
87798.2
100050
100199
100452
100723
100880
100758
100135
98942.4
97228.8
95176.5
93047.1
91092.3
89502.3
88394.6
87829
100042
100191
100445
100716
100872
100746
100125
98940.5
97238.3
95201.7
93082
91131.1
89539.5
88428.6
87861
100036
100186
100441
100711
100866
100738
100119
98939.8
97248
95224.6
93112.5
91165.4
89572.4
88459.4
87890.4
100033
100182
100438
100709
100864
100736
100117
98941.2
97254.3
95240.1
93133.5
91188.4
89595.8
88482.5
87913.3
100032
100181
100437
100710
100866
100739
100124
98950.9
97265.5
95247.9
93140.9
91197.5
89607.3
88496.2
87928.2
100033
100183
100439
100713
100873
100748
100135
98962.3
97271.7
95246.4
93135.8
91192.5
89606.3
88498.7
87932.6
100038
100187
100444
100720
100882
100763
100152
98975.4
97277.3
95240.3
93124.1
91180
89597.9
88495.1
87931.8
100043
100193
100450
100727
100893
100781
100170
98988.9
97282
95234
93109.6
91164.1
89585.7
88487.5
87926.8
100050
100199
100457
100735
100903
100796
100185
99000.3
97285.1
95227.1
93095.4
91148.9
89573.5
88478.9
87920.5
100055
100204
100462
100741
100910
100807
100195
99007.1
97285.4
95220.5
93084.3
91137.3
89564.1
88472
87915
100058
100207
100465
100744
100914
100813
100200
99009.9
97284.9
95216.5
93078.3
91131.2
89559.1
88468.2
87911.9
99920.3
100113
100461
100881
101218
101320
100823
99558.6
97575
95161
92715.2
90558.7
88866.4
87714.5
87133.4
99915.9
100109
100456
100876
101211
101316
100819
99557.7
97579.5
95171.1
92728.2
90571.6
88878
87724.8
87143
99907.9
100101
100449
100867
101198
101310
100810
99554.1
97586.6
95190.8
92754.7
90597.8
88900.9
87744.9
87161.7
99897.7
100091
100439
100856
101183
101296
100792
99541.6
97591.7
95216.5
92793
90636.1
88934.2
87773.7
87188.2
99887
100081
100430
100846
101167
101277
100770
99531.3
97592
95247
92841.5
90684.2
88974.9
87808.5
87220.1
99877.5
100073
100423
100840
101163
101257
100752
99525.8
97607.9
95280
92891.4
90736.3
89018.5
87845.3
87253.8
99870.4
100066
100419
100835
101155
101250
100745
99525.4
97623.1
95313.3
92942.6
90782.2
89057.6
87879.3
87285.1
99866.1
100063
100415
100834
101154
101244
100740
99475.6
97623.3
95329.7
92969.8
90810.1
89083.8
87904.5
87309.7
99865
100061
100414
100833
101157
101245
100748
99534
97642.2
95338.3
92973.5
90817.3
89095.5
87918.8
87325.5
99867.2
100063
100415
100835
101168
101249
100760
99547.7
97644.1
95328.1
92950.4
90804
89091.5
87921.6
87331.7
99872.4
100068
100419
100840
101176
101269
100783
99563.9
97644.5
95316.9
92926.2
90780.3
89078.8
87917.4
87331.4
99879.7
100074
100425
100847
101186
101296
100815
99584.6
97656.7
95302.8
92897.4
90754.9
89063.1
87909.1
87326.8
99887.4
100082
100432
100856
101197
101317
100839
99604.7
97661.1
95288.7
92873.3
90733
89048.3
87900.2
87320.9
99893.8
100088
100439
100862
101204
101333
100854
99613.3
97659.8
95276.1
92855.7
90717.5
89037.5
87893.2
87315.9
99897.4
100092
100442
100866
101207
101342
100861
99617
97658.2
95269.6
92847
90709.8
89031.9
87889.4
87313
99522.2
99817.2
100380
101148
101965
102570
102500
101108
98494.1
95229.8
92079.1
89487
87563.2
86301.1
85678
99515.9
99811
100374
101142
101959
102562
102492
101105
98500.4
95245.3
92097.3
89502.7
87575.7
86311.5
85687.4
99504.4
99799.9
100364
101133
101948
102547
102470
101099
98510
95280.3
92139.2
89536.9
87601.5
86332.4
85706.2
99489.8
99786.2
100353
101122
101935
102518
102427
101079
98502.3
95324.8
92205.5
89591.2
87640.6
86363.1
85733.5
99474.5
99772.6
100342
101113
101917
102476
102330
100993
98470.3
95389
92290.5
89661.2
87691.1
86401.8
85767.4
99460.9
99761.2
100335
101106
101908
102436
102285
100975
98495.9
95448.7
92399.4
89742.1
87746.3
86444.1
85804.3
99450.6
99752.5
100330
101110
101897
102433
102267
100969
98519.9
95493.3
92535.7
89816.9
87799.7
86484.1
85839.5
99444.7
99747.4
100326
101109
101896
102440
102283
100897
98523.3
95514
92574
89853.8
87832.2
86514.4
85868.3
99443.1
99744.9
100323
101103
101892
102428
102266
100975
98540.6
95520.7
92572.4
89859.3
87844.9
86531
85887.3
99446.9
99747.2
100322
101093
101898
102427
102288
100994
98538.2
95503.1
92472.2
89824.6
87833.8
86535
85896.7
99455.1
99753.5
100324
101098
101907
102471
102334
101022
98530.8
95472
92392.6
89777.2
87815.1
86530.8
85898.8
99466.3
99763.2
100331
101103
101923
102513
102446
101123
98576.9
95426.1
92330.2
89732.7
87793.1
86522.5
85896.2
99478
99774.2
100340
101112
101936
102544
102494
101149
98591.9
95393
92278.4
89696
87774.4
86514
85892.1
99487.7
99783.7
100349
101121
101947
102564
102520
101160
98587.1
95364.4
92245.1
89672.8
87761.6
86507.5
85888.4
99493.2
99789.2
100355
101127
101954
102573
102531
101165
98583.5
95352.2
92231
89662.3
87755.4
86504.1
85886.3
98756.9
99199.4
100084
101398
103057
104727
105766
104158
100142
95083.5
90732.4
87533
85335.4
83963.3
83306.6
98747.1
99189.8
100075
101390
103049
104718
105745
104151
100149
95106
90756.7
87550.6
85347.8
83973.2
83315.5
98729.2
99172.4
100059
101378
103040
104701
105707
104149
100179
95184.3
90823.2
87592.4
85374.8
83994
83333.8
98706.1
99150.6
100043
101370
103025
104662
105540
104148
100154
95330.3
90950.1
87664.6
85418.3
84026
83361.6
98681.5
99128.9
100029
101368
103028
104575
104685
103751
100778
95518.4
91118.1
87768.9
85477.4
84067.9
83397.5
98659.5
99110.4
100024
101386
103026
103763
104569
103707
100857
96690.8
91366.3
87895.1
85547.2
84114.7
83438
98642.7
99098.4
100023
101404
102411
103796
104510
103663
100861
96780.8
92580.9
87995.8
85613.8
84161.6
83478.5
98632.9
99091
100018
101400
102391
103799
104541
103578
100854
96817.7
92609.1
88039.2
85658.5
84200.5
83513.1
98632.1
99086.9
100010
101390
102385
103785
104499
103641
100872
96822.3
92629.4
88052.7
85671.8
84221.9
83539.4
98639.9
99090.1
100002
101361
102997
103747
104513
103677
100881
96807.4
91466.1
88004.6
85660.9
84231.3
83555.7
98654.9
99101.6
100001
101338
103002
104559
104646
103744
100886
95625.9
91256
87921.2
85637
84232
83563.6
98674.1
99118.1
100009
101335
102993
104632
105542
104185
100249
95464.6
91114.6
87847.7
85612.4
84226.9
83565.8
98693.8
99136.8
100024
101344
103011
104674
105721
104196
100272
95324.8
91000.6
87794.1
85592.1
84220.9
83565.2
98709.8
99152.6
100039
101357
103025
104708
105752
104202
100246
95251.6
90941.6
87763.4
85579.4
84216.4
83564.3
98718.7
99161.6
100048
101365
103034
104717
105782
104213
100241
95231.6
90920.8
87751
85573.7
84214.3
83563.7
97439.7
98039.7
99290
101283
104146
107877
111633
109440
102675
94017.1
87998.7
84305.2
81989.9
80632
80010.6
97424.3
98024
99274.3
101269
104133
107861
111596
109425
102687
94053.4
88025.8
84319
81999
80639.7
80017.8
97395.5
97995.1
99246.4
101249
104133
107858
111556
109407
102776
94171.4
88108.6
84354.7
82019.8
80657
80033.3
97357.3
97957.3
99213.3
101247
104191
107858
109253
109430
104201
94690.8
88353.1
84442.6
82057.2
80685.2
80058.7
97315.4
97917.5
99191.3
101263
104261
106343
109208
109336
104360
96883.7
88630
84553.3
82114.5
80724
80093.8
97276
97885
99183.8
101361
103338
106421
109148
109182
104355
97222.4
90781.3
84738.2
82174.9
80773.4
80135.7
97245
97852.9
99153.8
100823
103358
106431
108181
108416
104563
98176
91081.3
86543.2
82215
80811.3
80178.4
97231.5
97840.8
99189.3
100788
103356
106405
108153
108380
104590
98273.8
91234.2
86663.9
82345.6
80856.9
80226.2
97230
97835.7
99130.4
100773
103338
106395
108122
108370
104568
98280
91228.6
86678.9
82289.5
80891
80258.6
97249.6
97857.5
99152.8
101321
103286
106366
108181
108401
104568
97370.9
91014.8
84888.6
82328.9
80928.3
80290.7
97279.8
97879.5
99147.9
101212
104202
106282
109107
109187
104354
97210.3
88837.4
84766.7
82329.3
80940.8
80311.3
97315.2
97913
99164.7
101192
104130
107793
109152
109390
104418
94890.6
88586.1
84690.4
82314.2
80947.8
80323.5
97349.4
97947.5
99196.1
101196
104081
107811
111515
109436
102881
94359.6
88347.1
84620.8
82303.2
80950
80330.7
97376.2
97974.9
99223.9
101218
104087
107827
111570
109454
102799
94243.1
88268.6
84595.9
82297.7
80951.3
80335.2
97390.8
97990.2
99240
101234
104104
107850
111617
109474
102789
94206.3
88243.2
84586.7
82295.7
80952.2
80337.5
95344.8
96049.4
97582.4
100212
104420
111257
117014
122997
110198
89825.8
82720.9
79270.5
77281.9
76240.9
75802.1
95321.2
96024.2
97554.7
100182
104391
111216
116969
122954
110185
89853.5
82736
79270.9
77282.7
76243.6
75805.5
95276
95976.6
97502.3
100123
104354
111195
116883
122847
110143
89862.1
82732.4
79251.6
77284.2
76251.3
75814.6
95213.7
95911.5
97432
100071
104533
108953
116881
122788
110136
94204.3
82949.1
79229.6
77290.3
76268.7
75832.8
95142
95831.5
97342.5
100043
103348
109086
116907
120163
111327
95123.7
86203.6
79273.6
77278.6
76286.5
75862
95074.9
95745.9
97313.3
99644.5
103352
108096
114970
118966
111453
97485.7
86564.8
81674.2
77289
76308.7
75901
95018.1
95671.4
97251.1
99619.5
103363
107969
113938
118731
111827
98523.1
88348.9
81853.1
77273.2
76324.2
75941.3
94985.6
95619.7
97290.2
99631.9
102791
107464
113806
118558
111764
98588.1
88460.8
81986.8
79180.7
76361.5
75992.6
94997.3
95650.6
97225.1
99598
102773
107864
113771
118517
111743
98605.2
88490.6
81978.1
77391.7
76434.6
76050.3
95040.4
95705.7
97267.1
99548.5
103307
107924
113830
118644
111808
98618
88449.2
81961.1
77505.1
76518.8
76108.8
95096.5
95781.3
97279.6
99962.8
103195
108986
114804
119845
111484
97522.4
86682.2
79579.5
77577.1
76579
76150.7
95160.3
95854.1
97365.6
99988.8
104426
108835
116712
122653
110239
94731.9
83282.3
79573.3
77637.7
76616.8
76180.2
95218.2
95915.5
97434.7
100046
104263
111096
116740
122734
110272
90136.9
83063
79611
77659.8
76634.4
76200.5
95261.4
95962.1
97487.9
100110
104312
111140
116865
122895
110286
90114.9
83064.6
79638.1
77673.3
76646.9
76214.3
95284.5
95987.2
97516.7
100142
104348
111192
116952
122990
110309
90080.3
83047.3
79640.2
77678.9
76653.3
76221.2
92275
92935.2
94427.5
97167.9
101834
108425
124513
155029
115265
82677.6
72909
71696.5
71045.6
70861.9
70823.5
92241.4
92897.5
94381.6
97108.4
101758
108360
124393
154928
115252
82689.6
72902.1
71676.2
71036.3
70858
70822.1
92175.2
92821.3
94286.6
96967.1
101556
108203
124074
154645
115210
82714.2
72747.4
71596.8
71013.1
70850
70822.1
92079.2
92707.9
94136.2
96642.6
100931
108356
123706
154066
115034
82927.1
76156.3
71335.4
70972.2
70845.7
70830.1
91958.9
92553.3
93862.9
96657.9
100769
107311
120637
153335
116281
87056.9
76137
73628.8
70860
70844.9
70851.6
91831.4
92338.5
94286.4
96590.5
100422
106992
118859
147655
121051
89349.7
78614.2
73703.4
72610.4
70845.9
70893.5
91755.9
92248.1
94227
96481.5
100313
106432
118307
146730
121237
89744.6
80039.7
75372.3
72606.4
70904
70948.1
91690.4
92185.7
94243.8
96453.1
100211
106245
117924
145978
121232
89988.8
80193.3
75507.3
72761
70963.3
70984.8
91731.8
92223.6
94191.3
96453.4
100208
106204
117838
145756
121060
89950.4
80230
75574
72788
71050.3
71095.5
91782.9
92277.6
94221.8
96432.1
100275
106323
118098
146285
121035
89776.8
80180.9
75580.2
72863.6
71127.4
71170.9
91904.8
92494.9
93777.4
96516
100526
106933
118618
147233
121120
89638.3
79019.4
74048.1
71284.2
71240.5
71234.2
92014.1
92636.7
94052
96530.7
100617
107938
120491
153129
115764
87655
76643.7
71827.4
71447.3
71307.4
71284.9
92105.6
92746.7
94201
96865.9
101427
107980
123674
154025
115402
83235.9
73218.5
72088.9
71513.1
71350.5
71321.7
92170.7
92822.8
94298.6
97013.5
101645
108171
124100
154602
115376
83054.1
73355.9
72166.3
71547.5
71378.9
71346.6
92204.2
92861.1
94346.6
97077.8
101731
108296
124348
154879
115376
82978.5
73350.8
72184.1
71560.9
71391.4
71358.8
88188.2
88554.3
89387.2
90961
93563.4
99728.2
106359
101920
25558.7
53442.9
58695.9
61754.3
63703.9
64937.1
65504.1
88146.5
88506.7
89328.6
90882.6
93467.7
99620.4
106238
101677
25415.8
53472.8
58667.9
61733.9
63695.1
64929.3
65498.4
88063.5
88407.7
89209.8
90741.3
93255.2
99348.6
105901
101153
25652.1
53574.4
58588.3
61741.2
63685
64917.3
65493.2
87940.1
88247.5
88999.1
90349.5
94406
98740.5
105260
100184
26645.2
53961.3
60129.8
61828.7
63709.4
64920.5
65502.1
87784.4
88040.6
88700.1
91344.7
93942
98896.7
105589
98773.7
28359.2
57806.8
61946.1
63305.1
63842.3
64981.9
65538.9
87586.3
87834.8
89712.5
91086.5
94305.2
98905.8
104740
97045
30305.1
59020.6
63354.5
63601.9
65026.8
65134.9
65609.7
87518.5
87749.4
89595.2
90907
94431.4
98520.8
103998
95422.2
36322.4
60374.5
63888.5
64856.1
65087.4
65265
65700.8
87452.2
87674.1
89510.9
91529.6
94296.3
98267.3
103497
94211.3
40196.2
61217
64197.7
65480.9
65293.5
65358.3
65773.6
87485.3
87711.8
89505.7
91504.5
94265.9
98212.2
103384
93923.7
39528.8
60974.8
64178.7
65549.5
65352.8
65458.8
65889.6
87546.8
87786.8
89583.9
90879.7
94343.1
98379.1
103714
94654
35727.3
60126.3
63972.5
65106.9
65365.1
65505
65966.7
87711.3
87961.6
88601.7
91082.1
94226.4
98727.9
104406
96192.4
33237.7
59564.7
63745.8
63971.4
64407.4
65495.5
66033.5
87862
88160.1
88897.9
90217.4
94028.3
98049.7
104286
98221.9
30628.3
57199.1
60883.3
62506.6
64344.7
65520.9
66087.1
87984.2
88321.6
89109.4
90622
93106
98838.4
105173
99839.4
27235.6
54359.2
59234.9
62400.4
64339.1
65560.8
66130
88067.8
88422.7
89234.1
90773.2
93339.8
99344.3
105798
100931
26028.7
54011.3
59261.4
62373.1
64353.1
65592.4
66161.7
88110.4
88472.3
89296.7
90858.9
93447.4
99556.3
106122
101500
25447.3
53863.9
59263
62382.8
64362
65607.4
66178.3
83369.8
83210.3
82874.2
82394.9
82142.1
85706.3
88830.5
101603
3508.58
32920.3
45590.6
52358.9
56838.9
59464.4
60649.9
83326.8
83162.4
82820.3
82332.5
82082.7
85624.4
88732.5
101325
4403.58
32974.8
45557.7
52353.2
56829.7
59450.4
60636.6
83244.9
83071.2
82728.2
82260.8
81957.4
85430
88473.6
101011
3333.97
33132.6
45658.2
52409.8
56821.7
59435.3
60621.7
83125.9
82920.8
82547.1
82202.7
84534.8
85237.8
88018.3
100445
5237.39
33702
45897.2
52665.6
56889.7
59453.6
60629
82987.6
82759.4
82464
83982.7
84386.1
86724
88603.9
99686.7
6810.41
34304.7
46861.7
53454.7
57036.1
59542
60677.2
82835.5
82682.6
83781.8
83817.5
85357
87178.7
88076.4
98309.7
20144.7
35652.4
47647.3
53665.3
57709.5
59679
60762.9
82773.4
82626
83616.2
83703
85790.2
86847.8
87528.6
97108.7
17747.4
37114.8
47918.3
54253.8
57807.5
59798.5
60859.1
82713.4
82560.6
83517.3
84525.9
85652.5
86613
87140.7
96125.2
2319.91
38404.2
48041
54518.1
57987.4
59917.1
60959.6
82737.5
82585.2
83505.6
84498.7
85611.6
86549.8
87049.2
95919.6
2313.11
37563.6
47945.7
54616.9
58124.4
60050
61097.5
82782.8
82620.8
83584.6
83672.5
85666.1
86682.3
87298.2
96827.4
3304.29
35459.6
47796
54627.7
58213
60150.5
61211.6
82912.5
82674.8
82361.2
83701.7
85242.2
86970.3
87796.3
98161.9
3687.63
35356.8
47970.4
54252.6
57759.4
60190.8
61300.4
83043.6
82828.7
82437.7
82061.7
84267.5
85001.4
87628.9
99512.4
8140.54
35361.6
47223.2
53539.6
57710.1
60214.2
61363.3
83162
82980.6
82615.8
82131.9
81807.4
85125
87921.6
100280
3959.31
34092.7
46516
53267.1
57654.3
60242.8
61414.8
83246.2
83074.8
82721.8
82221.5
81960.1
85380.4
88364.4
100864
2962.13
33691.7
46324.2
53167.5
57657.7
60275.7
61457.4
83291.3
83127.1
82783.1
82294.2
82033.5
85551.9
88622.2
101185
3295.95
33492.2
46317.8
53152.3
57661.6
60295.2
61481.4
78525
77778.6
76240.5
73850.6
73364.2
72003.4
74230.3
2170.66
25187.5
38791.5
46767.3
52360.6
55716.7
57290
78484.4
77734.3
76195.1
73809.8
73329.7
71959.2
74176.2
2178.36
25212.3
38738.2
46743.8
52325.2
55680.6
57255.3
78415.1
77665
76126.1
73749
73283.3
71883.5
74033.6
2207
25189.9
38830.1
46702.7
52245
55621.1
57198.3
78323.5
77567.4
75992.9
73783.9
73462.1
71749.4
73778.2
3430.35
25544.3
37662.4
46782.6
52199.9
55577.7
57151
78234.2
77473.1
76034.7
75790.9
73887.8
73577.1
74231.5
5107.94
23880.9
37170.7
46207.2
52171.9
55580.6
57137.9
78137.4
77473.4
77385.7
75895.2
74994.7
74319.1
74040.9
2248.7
23217.9
36501
45990.7
51859.4
55548.7
57169.4
78078
77414.1
77294.9
75859.7
75570.7
74141.3
73763.8
6046.25
22029.2
35370.2
45595.9
51836.5
55580.2
57221.6
78028.5
77366.4
77222.2
76619.4
75552.1
73945.8
73470
2447.15
16973.3
33939.2
45226.5
51920.9
55711
57334.9
78043.9
77370.8
77208.8
76595.7
75494.1
73850.7
73345
2319.47
19839
34408
45484.6
52180.5
55915.6
57525.7
78075.4
77397.2
77256.3
75782.1
75416.2
73887.6
73418.9
2470.6
19109.9
35618.6
46345
52502.6
56166
57736.9
78154.5
77376.6
75906
75613.7
74782.6
73996.2
73624.4
2388.07
21346.6
37059.9
47087.6
53125
56407.2
57913.4
78240.6
77472
75874.5
73626
73322.1
71593.1
73126.9
2313.56
25663
39131
47964.6
53251.8
56526.5
58054.1
78335.9
77576.3
76016
73618.9
73110
71639
73650.5
4010.12
26213.2
39942.5
47797
53286.3
56614.1
58164.2
78410.8
77655.1
76103.5
73708.1
73223.9
71799.5
73930.8
2393.84
25921.2
39687.1
47758.7
53345.5
56685.6
58248.2
78453.6
77702.8
76159.7
73763.2
73259.5
71894.8
74093.8
2405.57
25819
39673.9
47743.6
53366
56723.5
58292.4
74567.9
73256.4
70520.8
65862
63385.5
55767.8
51615.7
2300.85
2173.29
25073.9
37041
45341
51049.3
54529.8
56210.5
74526.7
73212.8
70470
65813.2
63344.1
55725.8
51592.7
3031.73
2190.27
25326.9
36920.1
45274.2
50962.4
54450.8
56136.1
74453.7
73139.5
70383.7
65694.5
63272.8
55625.9
51504.9
2822.95
2227.15
22434.5
36975.5
45051.1
50752.9
54295.5
55995
74358.9
73049.6
70232.3
65596.6
63187.2
55490
51447.8
2854.21
3537.88
22561.7
33944.2
44706.4
50470.2
54098.3
55824.7
74270.6
72936
70079.7
68414.2
62879.7
58322.7
53391.9
2265.09
2275.01
17622
31729.7
42390.6
50113.3
53907.5
55660.8
74171.3
72809.1
71897.3
68179.2
64696.8
59611.2
53865.6
2724.66
2427.68
11898.1
28986.5
41491.4
48533.6
53673.5
55548.9
74088.4
72704.8
71770
67915.7
65371.1
59420.3
53672.4
1918.67
2282.95
6004.82
25546.1
39751.4
48225.8
53590.4
55513.5
74033.1
72648.6
71677
69213.3
65190.4
59119.5
53041.9
8706.21
2298.84
2302.84
22240.9
38595.9
48234.1
53709.7
55623.2
74051.3
72654
71668.9
69190.4
65104.7
58958.3
52790.5
4057.83
2301.54
2317.57
23722.3
39132.8
48616.1
54006.8
55883.8
74104
72720.9
71755.9
67842.5
65164.7
58964
52789.3
2632.55
2273.76
2594.57
27489.5
41148.5
49242.7
54432.8
56238.2
74190.2
72832.3
69926.4
68177.2
64448.3
59074.8
52851.1
2671.01
2241.86
13630.6
31115.2
43410.4
51335.9
54921.1
56595.2
74281.8
72957.7
70111.1
65432.2
62830.5
55199.2
51193
2414.78
6686.08
22219.1
35734.3
46275.7
51774.5
55248.7
56904.9
74385.9
73062.1
70287.1
65579.7
63043.8
55405.8
51307.6
3197.56
4237.8
23984.5
38433.6
46406.9
52025.1
55486.7
57142.6
74468.6
73149.8
70400.1
65736.7
63236.7
55607.8
51480
3010.34
2403.22
26142.3
38074.2
46505.3
52187.7
55645.5
57309.1
74515.5
73201.3
70464.1
65804.8
63313.9
55724.4
51599.3
2268.61
2415.1
25763.8
38098.6
46509
52246.6
55720.9
57391.1
72358.6
70574.3
66803
60278.5
49322.6
39767.5
16191.7
2239.65
2173.01
26971.3
39045.3
47215.2
52709.6
56046.5
57650.9
72304.6
70518.1
66735.7
60212.3
49273.5
39702.6
16168.1
2213.66
2198.85
27166.7
38872.9
47089.4
52560.8
55916.2
57530.2
72204.5
70415.5
66611.4
60075.6
49129.9
39379.5
16145.3
2200.61
6473.33
22815.5
38825
46717.1
52230.9
55648.7
57289
72069.4
70291.9
66426.9
59922.2
53659.5
39144.2
16092.9
2244.04
6517.49
22765.3
34228.4
46042.9
51674.4
55256.3
56963.1
71933.2
70144
66258.1
62416.5
53638.1
43089.4
22868.9
2288.75
2149.33
15816.4
30560.9
42161.7
51032
54820
56612.7
71794.4
69967.8
67721.7
62223.8
55728.6
45129.8
25554.5
2268.08
2285.5
2274.22
25840.9
40634.8
48259.5
54425.2
56330.1
71675.6
69816.5
67612.2
61964.5
56465.5
44854.1
24670.5
2259.71
2285.48
2129.93
20909.3
37660.6
47649.1
54218.4
56201.9
71609
69741.4
67508.4
63224.4
56172.3
44340.9
23393.8
2291.68
2299.96
2194.23
17547.7
35952.3
47553.9
54311.8
56303.3
71637.1
69761.2
67495.7
63178.9
56059.5
44129.8
23172.4
3478.42
2293.54
2207.49
19298.9
36606
48040.6
54702.6
56633.9
71729.3
69876.7
67587.4
61878.4
56167.8
44179
23220.8
2330.98
2224.69
2216.53
24266.5
39470.1
48969.5
55317.4
57136.6
71861.9
70047.5
66103.3
62198.1
55379.1
44315.6
23279.6
2274.2
2162.11
12500.3
29321.2
43211.9
52441.2
56007.8
57700.2
72008.8
70214.9
66317.3
59769.8
53442.2
39007.6
17716.9
2330.55
6197.9
21445.1
35890.9
47839
53206.1
56598.8
58215.6
72159.2
70360.6
66539.9
59986.2
49048.4
39244.2
16154.4
2207.56
8010
24373.3
40472.3
48316.6
53721.9
57032.9
58615.9
72273.4
70482.3
66694
60167.9
49246.3
39594.3
16272.6
2222.03
2433.76
28116.5
40251
48537.7
53992.1
57301.8
58883.9
72335.7
70549.1
66777.2
60259.5
49331.9
39792.9
16335.3
2225.91
2431.9
27842.6
40346.8
48591.2
54105.7
57424.5
59010.6
72614.9
70675.4
66505
59487.4
47341.1
35430.7
2401.94
2211.83
12659.3
33574.2
44844.4
52257.9
57157
60065.7
61444.3
72539.5
70596.9
66414.1
59381.4
47365.9
35195.7
2344.95
2231.42
13202
33408.8
44577
52046
56937.1
59884.8
61280.9
72400.2
70451
66243.9
59065.2
47725.2
33697.1
3366
2286.29
9568.36
26814.7
44105.1
51483.4
56492.7
59520.3
60957.8
72214.5
70277.8
66049.1
58917.9
50313.6
33258.1
7402.17
2286.83
7859.56
25941.3
38283.6
50513.3
55720.1
58980.3
60512.2
72024.5
70089.5
65874.7
60384.4
50052.7
36522.1
16064.7
2285.52
2271.32
17719.4
33461.2
45512.6
54843.2
58361.1
60024.9
71842.9
69888.9
66509
60007.5
51383.4
37758.2
17446.9
2248.15
2310.71
7563.43
28145.5
43591.6
51234.4
57882.2
59616.4
71686.3
69686.7
66310.6
59656.5
51721.6
37201.5
15907.1
2238.85
2297.68
2256.08
23884.6
39895.4
50427.3
57591.8
59428.7
71610.2
69587.8
66180.1
60477.5
51285.5
36548.8
15261.2
2271.58
2294.17
2206.52
21143.4
37977.9
50278.7
57678.5
59534.9
71651
69630.1
66182.4
60421.8
51156.3
36337.7
15093.9
2280.67
2309.7
2144.67
22558.2
38692.3
50862.1
58150.6
59921.4
71789.5
69805.7
66299.7
59621.1
51395.4
36630.4
15427.9
8555.21
2273.86
6306.36
27284.6
42073.3
52007.4
58909.3
60542.6
71974.5
70012.7
65735.2
60053.9
51052.6
37088.2
15799.2
2274.41
2281.27
17715.5
32431.4
46849.8
56527.3
59745.6
61266.8
72183.6
70229.6
65966.3
58788.5
49969.5
33792.1
15316.4
2317.56
7927.3
24600.9
40115.1
52685
57524.1
60521.6
61935.4
72390.4
70431.2
66205.7
58994.3
47659.9
33273.6
5064.29
2290.4
9968.4
28385.1
46112.8
53400.7
58223.1
61100.3
62459.5
72547.5
70600
66408.3
59366.2
47353.9
35260.5
2579.39
2247.4
13978.4
34962.7
46268.9
53747.6
58586.7
61458.7
62807.3
72633
70691
66518.1
59509.1
47372.2
35552.6
2659.99
2238.61
14109.9
35384.6
46425.8
53859.2
58757.7
61625.9
62974.3
75702.1
74089.5
70559.5
64753.8
53399.6
37758.3
2222.87
2275.76
23076.2
46132.4
54688.8
60634.9
64250
66295.6
67260.4
75599.4
73975.9
70424.7
64539
53288.8
37586.7
2234.06
2277.73
23807.2
45750.1
54405.9
60338
63969.8
66078.4
67068
75410.5
73763.3
70180.6
63993.6
54394.1
37375
9315.92
2307.27
15286.5
36458.2
53883
59647.5
63432.4
65652.1
66698.4
75163.4
73494.6
69845.4
63618.8
54056.5
37216.4
9771.86
2308.25
12521.3
34904.5
46955.7
58543.8
62542.5
65037.3
66192
74904.8
73208.5
69500.7
63361.4
53320.6
38488.9
16611.3
2426.21
7865.52
25390
41221.4
52711.5
61566.8
64340.8
65650.1
74663.1
72942.7
69040.6
62613.5
53238.8
38493.3
15871.2
2220.27
2216.19
16793.3
35436.2
50544.8
57328.9
63841
65225.3
74458.8
72674.1
68618.8
61994.4
52730.5
37156.6
14978.9
2284.37
2296.6
7940.31
31483.5
46511.9
56506.3
63551.2
65029.2
74372.1
72550
68391.3
62065
51887.6
35732.1
13893.4
2285.05
2284.15
2293.09
29304.5
44560.7
56387.1
63664.9
65153.5
74432.6
72622.7
68416.2
61990.1
51671.9
35206.3
13123.7
2317.71
2274.07
6782.24
30924.4
45438.4
57046.8
64189.9
65581.4
74632
72879.6
68667.9
62033.6
52265.1
36333.9
14801.1
2283.45
2103.06
16760.7
35735
49143.9
58326.6
65016.4
66252.6
74891.2
73168
69395.7
62782.9
52947.8
37910.8
16766.8
5462.09
25444.9
28566.5
41049.4
54528.6
63573.1
65913.6
67029
75178.1
73493.8
69808.8
63517.5
53485.7
37190.9
15407
2311.46
12667.9
34448.9
49570.2
61240.2
64638.9
66766.9
67765.7
75451.6
73796.4
70196.7
63978.2
54318.8
37534.1
9658.18
2313.01
15412.6
38188.9
56442.4
61941.4
65407.3
67412.8
68351.6
75660.6
74033.5
70472.5
64566.7
53292
37542.5
2368.24
2326.19
23783
47479.9
56341.3
62302.6
65829.9
67819.6
68742.1
75774.2
74159.9
70624.2
64808.4
53442
37785
2378.02
2324.82
24327.5
48022.6
56359.5
62444.3
66038.6
68014.6
68934.7
81289.4
80424.7
78437.4
75464.3
67705.8
58640.4
2359.74
2268.38
49199.5
66838.7
69275.8
72236.8
73506.1
74212.3
74574.2
81154.7
80263
78234.3
75076.7
67281
57845.8
2368.62
2277.12
49189.2
66370.3
68971.3
71846.5
73192.7
73979.1
74369.4
80909.8
79970.1
77939.4
74327.5
69102.7
52727.9
19435.6
2362.35
30750.7
54933.4
68741.3
71064.5
72612.9
73534.8
73987.1
80588.8
79585.9
77396.1
73786.1
64862.7
51080.7
22256.6
2328.05
26063.2
53099.4
61126.7
69948.3
71712.1
72912.2
73472
80252.1
79184
76884.5
71288
63784.5
50223.5
26339
2288.49
34013
42277.2
54859.3
63681.7
70755.8
72224.3
72933.8
79955.5
78854.6
74972.8
70200
61924.4
48485.4
28531.8
10770.9
12741.3
32996.3
48584
61709.1
66260.2
71769.1
72548
79711
78543.7
74381.2
69312.1
60196
45085.6
20590.9
2302.36
2293.43
22262.2
44613.8
57514.4
65542.3
71535.2
72376.4
79619.2
78409
74090.5
68384.1
58607
40966.2
11455.7
2291.06
2197.86
16990.5
43013.8
55605.4
65565.8
71678.8
72517.6
79704
78513
74145.7
68313.4
58215.4
38942.7
2444.91
2299.24
2234.39
21995
45037.7
56614.4
66245.2
72194
72945.7
79964.4
78837.1
74521.2
69483.1
59516.3
42775
15811.8
2348.39
4866.98
33486.4
49892.9
60466.8
67477.9
72986.5
73613.9
80296.1
79213
76878.7
70500.3
61711.2
47122
23364.9
2376.36
39177.3
47047.1
55423.8
66075.6
72912.7
73880.9
74378.1
80669.2
79662.6
77461.6
73831.3
64158.8
50472.6
23795.4
2316.93
45785.7
54885.7
64843.3
72881.2
73954.2
74742.6
75125.2
81019.4
80080
78047.2
74419.9
69155.3
51870.2
21501.4
2355.06
32153.2
57971.1
71755.2
73609.9
74743.6
75404
75727.3
81284.1
80394.5
78366
75192.3
67386.1
57692.7
2553.2
2383.93
50000.3
68593.2
71222
74048.5
75204.5
75827.8
76133.4
81429
80567.1
78580.6
75584.3
67825.7
58537.4
2621.41
2394.07
49744.7
68695.9
71232.4
74277
75443.5
76038.2
76338.9
88392.6
88562.7
88887.5
91129.6
94098.2
111564
169967
159624
122642
97971.7
88513.6
85898.1
83824.9
82920.7
82574
88227.2
88338.3
88569.9
90415.2
92803.6
109698
164310
161580
121778
97474.8
87898.1
85375.4
83491.8
82681.8
82369
87930.1
87931.3
88076.9
88530.6
91024.6
86446.1
90618.3
119799
112067
88814.7
86573.3
84186.7
82861.5
82233.6
81992.6
87542.1
87436.8
87260.9
87472.9
83123.4
80564
72990.3
46531.2
79697.7
83106.9
80513.9
82816
81951.1
81626.3
81496.1
87141.9
86927.3
86523.4
83216
81229.9
74018.4
56368.5
2246.08
47549.7
67094.2
73842.8
77598.6
80956.2
80973.6
80983.8
86813.2
86481.7
83682.7
81939.8
77157.7
69293.4
47818.5
6024.49
20658.6
57145.4
67902.2
76002.8
77234.2
80484
80642.8
86558.1
86168.3
83073.3
81036.9
74391.7
65153.4
42817.6
2503.45
7117.51
49463.4
64951
72328.6
76714.8
80299.5
80498
86479
86067.5
82800.1
78923.4
72659.4
59134.8
18744.2
2490.66
2200.07
45473.2
64108.6
70628.1
76830.4
80456.3
80643.6
86584.7
86189.7
82900.1
78944.3
72385.1
56834
2306.4
2307.18
9192.85
51129.8
66128.5
71605.4
77435
80917
81038.7
86882.4
86549.1
83349.1
81445.5
74125.8
63450.4
35370.3
2252.75
26824.7
60771.5
70198.3
75112.8
78482.9
81646.3
81667.2
87263.4
87063
86702.7
82623.2
77643.9
69531.7
49511.6
2360.34
37186.4
71171.1
74862
79899.5
83035.2
82580.4
82396.5
87704.7
87618.7
87490.8
87805.8
82437.3
79728.8
58710
22912.9
59330.4
82045.6
84259.1
85654.6
84149.3
83431.4
83129.5
88120.5
88137.6
88318
88816.6
91396
82840.1
74482.7
110038
111774
91736.6
89859.2
86790.1
85006.7
84101.6
83727.4
88434.5
88557.8
88813.4
90658.3
92990.7
109706
162564
158879
124035
100263
90384.7
87666
85534.3
84541.7
84137.7
88608.2
88788.2
89132.5
91354.2
94200.7
111859
169767
157636
122945
99968.2
90590.1
88009.2
85797.5
84763.7
84348.5
95577.6
96654.1
98784.1
104461
113980
124697
163051
194874
142510
116673
104948
97856.2
93286.4
91167.6
90223.4
95412
96419.9
98498.4
103978
113131
125274
166503
191341
141707
116184
104281
97411.5
92994.3
90943.3
90035.8
95104.4
95936.6
97978.1
101919
110406
119241
155063
196387
145402
117034
102352
96036.4
92381.1
90505.2
89686.2
94695.9
95402.4
97021.8
100575
102666
115704
145174
202986
144249
112181
99496.5
94525.7
91487.4
89922.9
89228.1
94264.9
94800.7
96034.8
96207.8
100049
105613
121570
189222
122026
102788
94975.9
91390.2
90456.3
89280.5
88742.9
93912.7
94250.9
93334.2
94714
96039.5
99778.3
113217
164065
108496
96079.5
91165.8
90044.4
88198
88769.8
88412
93676.1
93942.5
92899.8
93816
93312.3
97576.8
114281
180831
101741
93727.8
89916
88202.7
87890
88601.7
88285.3
93623.6
93883.3
92679.9
92047.8
92124.1
94793
102898
175291
96319.9
94372.6
90252.8
87652.5
87928.1
88740.6
88423.8
93736.4
94014.1
92829.3
92162
92298.7
95273.2
102257
145198
103515
96775.4
91465.1
88365.3
88433.6
89136
88772.2
94037.5
94392
93277
94410.8
93922.5
99872.4
132004
189603
120292
100886
93497.2
90242.3
89321.5
89790.2
89343.8
94459
95032
96367.9
95998.9
97288.2
102419
121780
184425
137826
106651
96480
93270.9
92310.3
90741
90046.9
94936.2
95683.1
97408.4
101186
102552
114649
135092
223622
146213
114514
102270
97218.6
93523.7
91601.4
90755.5
95372.4
96237.2
98359
102446
111226
119613
157951
208276
154110
121609
105529
98524.8
94410.5
92269.6
91328.2
95695.2
96726.7
98863.4
104425
113539
126290
167202
195014
145341
119190
106744
99607.3
94939.5
92715
91722.3
95868.9
96964.3
99144
104891
114122
125490
164258
188976
144655
118975
106960
99909.8
95178.9
92932.9
91922.8
101422
102753
105112