/*--------------------------------*- C++ -*----------------------------------*\
| =========                 |                                                 |
| \\      /  F ield         | OpenFOAM: The Open Source CFD Toolbox           |
|  \\    /   O peration     | Version:  v2012                                 |
|   \\  /    A nd           | Website:  www.openfoam.com                      |
|    \\/     M anipulation  |                                                 |
\*---------------------------------------------------------------------------*/
FoamFile
{
    version     2.0;
    format      ascii;
    class       volScalarField;
    location    "0.038";
    object      p;
}
// * * * * * * * * * * * * * * * * * * * * * * * * * * * * * * * * * * * * * //

dimensions      [1 -1 -2 0 0 0 0];


internalField   nonuniform List<scalar> 
449343
(
111511
111668
111934
112213
112369
112209
111502
110177
108282
106026
103703
101589
99881.1
98695.1
98089.9
111505
111663
111933
112217
112379
112227
111527
110209
108321
106069
103744
101626
99912.2
98720.8
98112.5
111508
111670
111947
112240
112413
112275
111590
110286
108410
106164
103838
101711
99985.7
98783.9
98169.8
111516
111683
111969
112275
112462
112342
111676
110391
108531
106293
103966
101828
100085
98869
98246.7
111523
111695
111990
112310
112511
112411
111765
110501
108658
106428
104100
101949
100188
98954.5
98322.9
111521
111697
112000
112331
112544
112460
111833
110586
108758
106536
104206
102043
100264
99015.8
98375.6
111502
111681
111989
112326
112545
112472
111854
110616
108797
106582
104248
102079
100289
99030.3
98384.5
111464
111643
111951
112287
112505
112432
111811
110571
108752
106541
104207
102036
100244
98982.8
98335.8
111405
111581
111885
112214
112424
112337
111705
110455
108629
106411
104078
101913
100127
98872.3
98228.7
111330
111502
111796
112113
112309
112200
111548
110280
108438
106210
103880
101722
99951.4
98709.8
98073.4
111245
111411
111694
111995
112174
112040
111365
110073
108210
105970
103641
101495
99742.4
98517.1
97889.9
111160
111319
111591
111876
112037
111880
111181
109865
107982
105731
103400
101265
99530
98320.5
97702.2
111082
111236
111498
111769
111915
111739
111019
109684
107783
105521
103189
101063
99341.6
98144.9
97534
111019
111170
111424
111685
111821
111631
110897
109548
107634
105364
103030
100910
99198.2
98010.3
97404.4
110977
111125
111376
111631
111761
111564
110823
109466
107546
105272
102938
100820
99113.5
97929.9
97326.4
111325
111529
111895
112325
112666
112726
112151
110760
108609
106012
103389
101078
99261.3
98022.4
97396.5
111319
111525
111896
112333
112681
112750
112183
110803
108661
106069
103445
101126
99300.4
98054.2
97424.3
111324
111534
111913
112363
112725
112811
112261
110900
108776
106194
103567
101234
99389.9
98129.1
97491.3
111334
111551
111942
112407
112787
112894
112367
111030
108934
106368
103739
101383
99512.8
98230.6
97581.5
111344
111567
111970
112454
112855
112980
112488
111184
109103
106557
103927
101546
99642.3
98334.8
97672.5
111344
111573
111988
112488
112905
113053
112581
111307
109257
106713
104083
101680
99745.1
98413
97738.2
111327
111560
111982
112491
112914
113084
112623
111364
109332
106794
104165
101745
99786.8
98438.5
97754.9
111289
111522
111944
112454
112877
113045
112582
111268
109283
106754
104129
101706
99743.3
98392
97706.5
111229
111459
111876
112375
112787
112939
112460
111181
109140
106603
103978
101564
99613.8
98271.9
97591.8
111151
111375
111780
112263
112660
112776
112272
110968
108898
106352
103726
101334
99412.6
98091.6
97422.7
111064
111280
111670
112132
112506
112590
112060
110720
108612
106058
103431
101062
99173.3
97878.3
97222.7
110975
111184
111559
112001
112351
112414
111848
110472
108347
105767
103138
100792
98933.5
97662.2
97019.3
110895
111098
111460
111885
112217
112261
111671
110273
108120
105521
102889
100560
98724.1
97471.2
96838.2
110831
111029
111383
111795
112114
112143
111538
110122
107951
105340
102707
100388
98567.2
97326.3
96699.8
110788
110984
111333
111739
112051
112071
111459
110033
107854
105238
102605
100290
98475.9
97240.8
96617.5
110856
111168
111762
112553
113360
113986
113809
112246
109409
105917
102564
99806.8
97756.3
96406.8
95738.9
110851
111166
111767
112568
113386
114025
113860
112314
109493
106009
102651
99879.8
97813.7
96452.3
95778.1
110859
111180
111793
112613
113453
114118
113970
112465
109671
106211
102844
100040
97939.9
96553.9
95867
110873
111204
111834
112681
113550
114244
114117
112673
109912
106498
103127
100271
98116.4
96693
95987.3
110888
111228
111880
112757
113658
114373
114271
112886
110191
106848
103458
100534
98311.1
96840.4
96111.7
110892
111243
111915
112819
113756
114490
114420
113109
110489
107134
103776
100772
98475.6
96958.4
96206.9
110878
111235
111919
112847
113781
114562
114512
113240
110664
107285
103978
100906
98560.6
97008.7
96241.2
110840
111199
111884
112815
113754
114548
114523
113054
110629
107254
103949
100875
98522
96964.6
96193.4
110778
111131
111808
112723
113641
114396
114313
112997
110405
107045
103749
100689
98360.8
96821.8
96061
110696
111040
111699
112581
113491
114172
114050
112682
110022
106688
103331
100360
98095.4
96600.8
95860.9
110602
110935
111570
112419
113286
113935
113778
112330
109586
106242
102867
99974.6
97785.4
96339.6
95623.8
110509
110830
111442
112259
113092
113722
113539
112037
109229
105804
102442
99608.8
97481.4
96079.1
95384.7
110425
110737
111331
112122
112927
113535
113336
111780
108946
105466
102098
99306.8
97224.2
95853.2
95174.8
110358
110664
111246
112019
112804
113392
113181
111590
108733
105227
101861
99093.5
97036.8
95685.1
95016.7
110314
110617
111192
111957
112731
113310
113089
111485
108614
105099
101734
98976.2
96931
95588.2
94924.5
109974
110443
111379
112753
114423
116088
117068
115166
110816
105441
100859
97497.9
95181.6
93727.7
93028.9
109970
110444
111389
112777
114465
116147
117137
115271
110946
105587
100994
97606.8
95264.7
93792.5
93084.1
109980
110463
111426
112845
114572
116289
117292
115513
111241
105933
101302
97844.5
95443.8
93932.3
93204
109998
110493
111485
112951
114730
116507
117397
115874
111617
106492
101794
98201.7
95700.2
94125.8
93367.1
110017
110527
111554
113072
114928
116702
116852
115909
112721
107232
102422
98642.2
95995.3
94337
93539.4
110026
110552
111620
113217
115133
115997
116988
116244
113277
108837
103147
99080.5
96265.4
94513.8
93677.1
110013
110551
111642
113277
114458
116131
117154
116513
113634
109254
104629
99340.6
96416.7
94600.7
93735.8
109975
110518
111616
113254
114439
116158
117215
116465
113701
109343
104691
99320.3
96392.9
94559.8
93686.1
109910
110444
111527
113143
114340
116017
117012
116312
113446
109071
104444
99054.4
96170.1
94380.1
93528.6
109823
110342
111392
112957
114827
115751
116691
115911
112927
108527
102503
98542.1
95801.8
94097.3
93283.5
109725
110225
111229
112710
114507
116195
116399
115432
112310
106409
101644
97950
95375.6
93766.4
92993.1
109626
110110
111078
112505
114229
115933
116723
115106
110752
105622
100958
97423.1
94976.9
93442.2
92703.9
109540
110011
110952
112334
114012
115673
116594
114741
110408
105073
100448
97019.6
94652.5
93167.7
92454
109471
109934
110858
112212
113856
115491
116413
114488
110116
104727
100127
96748.6
94423.9
92968
92269.1
109426
109885
110800
112142
113772
115395
116311
114359
109969
104563
99966.2
96606
94298.9
92855.8
92163.7
108481
109121
110448
112553
115490
119141
123023
120347
112888
103738
97515
93711
91314.9
89897.8
89244.8
108476
109121
110459
112582
115544
119224
123109
120442
113075
103959
97708.3
93858.7
91425.8
89983.2
89317.1
108485
109140
110501
112667
115697
119440
123338
120712
113545
104480
98151.7
94181.2
91663
90164.7
89470.3
108500
109171
110571
112827
116015
119890
121321
121259
115661
105697
98984
94704.7
92011.1
90419.1
89679.9
108516
109205
110657
113004
116310
118564
121719
121880
116685
108792
100085
95367.1
92430.5
90702.3
89905.1
108523
109238
110762
113314
115550
119014
122227
122539
117719
110128
102944
96093.2
92819.8
90952.5
90090.1
108504
109226
110762
112698
115668
119308
121496
122273
118582
111754
103885
98298.8
93009.9
91062.4
90170.7
108467
109196
110800
112674
115702
119364
121621
122474
118942
112133
104204
98452.4
93098.5
91011.3
90121.4
108398
109115
110647
112578
115578
119189
121399
122163
118508
111726
103752
98133.4
92693.2
90794.9
89928
108315
109020
110522
113031
115292
118784
120982
121478
117544
109665
102576
95357.8
92233.1
90457.1
89635.2
108217
108894
110319
112617
115843
118233
121260
121258
116015
108354
98983.3
94465.8
91679.3
90041.1
89285.6
108122
108779
110151
112360
115477
119250
120757
120667
115149
104530
97915.8
93761.4
91171.5
89648.1
88942.6
108038
108681
110016
112140
115112
118782
122581
120102
112591
103469
97156.1
93239.9
90778.4
89323.4
88651.5
107972
108605
109919
112005
114917
118544
122344
119738
112177
103013
96750
92916.4
90510.3
89092
88439.7
107929
108557
109862
111932
114824
118431
122236
119558
111998
102805
96556.5
92751.3
90367.5
88965.1
88321.4
106125
106885
108524
111322
115764
122728
128374
133541
119582
98315.6
91260.9
87857.6
85880.3
84831.6
84384.9
106116
106881
108529
111347
115821
122811
128441
133650
119742
98595.4
91498.1
88034.3
86013.7
84934.1
84471.2
106116
106890
108558
111408
115952
123027
128638
133957
120168
99183.5
91985.8
88398.2
86296.1
85149.8
84651.9
106119
106910
108618
111571
116497
121119
129115
134640
121101
104678
93084.3
88982.2
86717.4
85457.4
84901.1
106117
106917
108663
111758
115420
121663
129981
133168
123814
107170
97570.1
89871.9
87208.6
85794.7
85170.6
106110
106918
108772
111425
115719
121038
128716
133308
126092
111568
99469.3
93248
87739.4
86086.2
85393.8
106075
106877
108774
111512
115980
121265
128251
134459
128484
114572
102422
94092.6
87987.9
86207.3
85488.3
106024
106811
108759
111559
115305
120800
128500
135085
129654
115591
103084
94316.4
90149.6
86075.4
85410.6
105966
106760
108637
111439
115196
121144
128244
134539
128752
114737
102421
93787.2
87538.1
85877.3
85202.9
105898
106695
108525
111192
115606
120841
127576
133171
126393
112509
100767
92820
86987.9
85499.7
84871.7
105813
106599
108314
111353
115067
121340
127676
132658
123505
108821
96986.5
88669.6
86294.6
85031
84472.1
105737
106512
108189
111091
115934
120633
128592
133952
120283
104042
91701.5
87839.6
85747.4
84592.9
84086.1
105667
106427
108067
110872
115353
122342
128047
133291
119467
98001.5
90834.7
87332.6
85314.6
84229.9
83763.3
105611
106363
107986
110764
115183
122108
127749
132938
118985
97581.7
90456.9
87012
85025.7
83977.5
83532.2
105573
106321
107935
110697
115089
121996
127624
132765
118769
97362.8
90254.4
86840.2
84873.4
83840.9
83404.8
102690
103419
105045
107998
113024
119979
136521
166272
122131
89540.4
80077.7
79192.9
78707.6
78602.5
78594.7
102673
103404
105035
107999
113044
120008
136552
166319
122261
89741.5
80313.8
79372.6
78850.9
78713.4
78688.2
102655
103387
105022
107973
113017
120088
136620
166475
122617
90304
80703.5
79736.9
79150.7
78943
78882.8
102633
103368
105010
107861
112570
120651
136908
166770
123310
91687.2
85296.3
80199.1
79595
79270
79152.2
102590
103312
104894
108074
112756
120016
134367
167488
126773
98442.6
87113.4
83747.1
80051.7
79627
79441.8
102534
103192
105440
108204
112645
120240
133450
163858
136790
105275
92226.7
85092.7
82738.3
79902.2
79679.1
102487
103143
105452
108242
112758
119995
133796
165568
144885
111258
96292.5
88131.8
83240.9
80066.5
79790.9
102415
103069
105479
108237
112752
120016
133935
166665
150866
114801
97843.5
88650.1
83434.3
79985.4
79673.8
102376
103025
105356
108166
112673
119881
133695
165861
147349
112461
96709
88064.7
82976.8
79713.6
79474.4
102321
102970
105250
107960
112480
119620
133178
163733
137362
105831
93541.8
86565.6
82187.6
79256.2
79103.3
102284
102990
104540
107740
112404
119703
132683
162205
131407
100264
88973.1
82871.1
79003.5
78777.7
78675.1
102250
102971
104580
107382
112023
120091
133515
166166
123039
95288.6
84172
78890.1
78515.2
78325.6
78269.8
102208
102927
104533
107442
112427
119536
136010
165821
122005
89514.4
79452.8
78575.7
78090.9
77957.5
77934.6
102172
102891
104497
107422
112416
119385
135846
165637
121677
88977.2
79236.5
78297.5
77808.4
77704
77697.9
102143
102861
104463
107381
112359
119281
135768
165518
121483
88727
79075.9
78145.9
77658.9
77566.3
77568.2
98117.8
98556.1
99530.7
101319
104265
111150
118730
116593
26385
57717.7
64245.6
67973.7
70280
71697.2
72339.5
98093
98531.4
99507.7
101296
104254
111128
118714
116504
26533.9
57893.9
64435.1
68153
70427.9
71808.4
72432.4
98057.6
98489.6
99466.1
101264
104207
111088
118688
116458
26716.1
58457
64895.5
68610.9
70751.7
72042.9
72628.7
98009.1
98421.5
99387.5
101055
105658
110793
118561
116402
27139.8
59996.5
67625.6
69500.1
71283
72389
72907.2
97933
98321.3
99228.7
102345
105556
111400
119507
116226
30273.2
67234.6
71623.4
72366.2
71968.1
72806.8
73215.2
97819.3
98196.8
100458
102326
106174
111822
119465
115662
61956.7
77183
76861.2
73842.5
74254.4
73200.6
73467.1
97776.1
98149.4
100465
102288
106505
111865
119378
114644
99749.5
89376.9
81373.9
76890.9
74753.1
73412.2
73598.5
97707.7
98063.8
100401
102923
106497
111836
119234
113453
122857
97872.2
83989.9
78797
74873.6
73364.8
73513
97667.8
98035.1
100328
102834
106401
111719
119148
113927
111557
93388.4
82411.3
78113.9
74431.8
73049.6
73272.3
97601
97968.5
100256
102026
106230
111537
119079
115053
56904.4
78322.5
77442.7
75072.8
73630.7
72530.6
72862.7
97628.4
98001.9
98878.6
101967
105759
111343
118967
115485
30529.2
67420.1
72586.1
71403.3
70875.9
71914.1
72404.7
97631.7
98028.9
98962.1
100583
105125
109983
117770
115744
27143.8
61010.4
66257.8
68106.1
70139.7
71394.8
71979
97618.5
98037.9
98987.9
100747
103644
110305
117945
115708
26084.7
57673.3
63659.5
67416.4
69654
71017.4
71639.9
97603.4
98031.2
98985.1
100739
103655
110463
117985
115692
26979
57256.3
63393.8
67071.3
69361.8
70767.4
71407.6
97583.7
98012.2
98966.2
100723
103630
110450
117965
115682
25873.1
57061.8
63295.2
66932.8
69215.5
70634.4
71282.2
92691.7
92593.1
92369.5
92025.8
91950.9
96129
100004
113371
6586.78
35512
49736
57360.5
62319.7
65202
66493.9
92663.4
92564.4
92343.8
92003.7
91947.3
96096.7
99972.6
113171
2453.92
35639.6
49872
57536.2
62457.2
65302
66576.3
92625
92524.6
92314.8
92030
91957.7
96050.7
99926.8
113114
2361.65
36155
50406.7
57995.1
62770
65527.4
66758.4
92577
92459.1
92261.8
92138
94931.2
96116.5
99830.2
113086
2879.05
37514.8
51536.9
58965.2
63333.6
65886.5
67030.9
92515
92386
92289
94318.1
95116.7
98207.2
101145
113238
2555.13
40329.6
54195.3
60953.4
64107.4
66360.3
67354.5
92432.7
92393.3
93975.9
94359.2
96582.8
99270.4
101288
113066
39892.8
47670.6
57896.8
62372.9
65661.6
66817.1
67636
92401.4
92368.4
93936.6
94404.5
97367.5
99394.4
101449
113125
20732.8
53353.7
61300
64306.2
66163.9
67027.2
67762.6
92340.3
92300.6
93867.7
95424.1
97348
99416.3
101470
112954
12888.3
58051.6
63407.1
65459.6
66310.8
66980.2
67680.3
92288.3
92249.5
93783.9
95319.5
97225.8
99244.1
101257
112728
48951.2
58853.2
62580.9
64935.4
65906.7
66639.3
67423.2
92221.7
92166.5
93700.4
94120.2
97026.8
98961.7
100933
112510
16885.7
49045.6
58652.6
62763.2
65104.2
66110.4
67009.8
92216.5
92076.9
91945.1
93932.5
96125.3
98727
100653
112354
2561.28
40404.9
54458.4
60024.2
62975.5
65440.1
66516.7
92208.3
92074.8
91842.7
91678.1
94536.9
95744.3
99483.9
112524
2380.78
36630.4
50679.2
57624.4
62177
64870.1
66076
92200.2
92089.4
91857.2
91534.7
91421.7
95457.2
99212.8
112334
5733
35530.4
49245.3
56836.1
61674.2
64486.6
65747.9
92191.9
92085.7
91849.5
91480.8
91386.2
95438.3
99241.4
112357
3257.92
35137.5
48909.7
56487.6
61393.9
64249.1
65533.7
92177.7
92072.9
91835.5
91466.2
91355.6
95449.3
99246.7
112369
3610.08
34981.6
48845.9
56350.7
61259.8
64129.6
65420.9
87129.6
86432.8
84978.2
82650.4
82265.4
81006
83576.5
2304.63
27039.2
41968.2
50785
56855.7
60475.8
62156.6
87099.5
86401.1
84950.3
82629.7
82237.7
80966.8
83529.6
2299.57
27058.9
42037.5
50909.3
56945.9
60542.5
62210.7
87066.4
86374.8
84931
82638.5
82268.5
80966.7
83462.5
2295.42
27146.7
42400
51195.8
57154.9
60704.6
62338.4
87039.7
86357.3
84917.3
82832.9
82628.9
81019.1
83427.6
2295.25
27771.3
41919.5
51878
57538.2
60970.7
62536.2
87030.9
86365.2
85131.4
85104.9
83401.8
83533.7
84561
2293.07
26904.8
42551.1
52253.4
58039.5
61323.8
62777.6
87015.2
86500.3
86725.5
85523.6
85147.4
85030.1
85197.8
2274.2
28588.7
43697.7
52936.9
58523.4
61549.3
62983.1
87002.1
86515.9
86712.5
85742.9
86258
85675
86245.8
2155.25
28610.6
44840.2
53556.6
58815.5
61612.2
63027.6
86948
86469.4
86671.7
86683.2
86446.3
86001
86875.4
2269.67
28272.2
45530.5
53987.7
58734.4
61513.3
62911.9
86890.3
86395.1
86575.7
86576.2
86255.4
85613.7
86154.2
6299.78
31425
45472.1
53629.3
58418.1
61213.7
62674.2
86802.8
86274.4
86467.5
85387.8
85793.2
84882.1
84993.6
2713.71
29439.4
43782.2
52429.9
57896.9
60831
62335.3
86737
86056.1
84784.4
84785.7
84512.7
84244
84171.2
2293.97
26540.2
41709.8
51185.5
56915.8
60385.9
61917.1
86682.6
85985.8
84512.3
82392.1
82306.8
80672.5
82700.4
2298.88
25692
40906.6
50595.2
56390.8
59944.1
61562.7
86659.6
85963.5
84505.8
82180.1
81837.7
80416
82798.9
2297.02
26473.3
41353.2
50086.9
56068.1
59657.3
61315.2
86651.8
85952.7
84497.3
82160.5
81782.5
80388.2
82815.5
2297.77
26510.8
41153.8
49896.1
55891
59485.4
61158
86641.9
85945
84490.4
82150.7
81730.3
80376.4
82824.1
2293.59
26561
41127
49801.2
55803.5
59400.3
61075
82370.9
81118.3
78480.1
73843
71387.6
63315.3
58791.6
2585.5
2295.23
26185.2
39674.1
48614.4
54710.6
58387.2
60142.3
82331.2
81075.7
78428.8
73780.8
71317.5
63218
58696.5
2978.2
2296.74
26035.6
39622.5
48648.4
54725
58399.2
60149
82283.2
81030
78370.4
73675.4
71239.6
63060.8
58419.5
2293.65
2296.11
22383.4
39798.2
48729.1
54784.5
58448.7
60181.3
82241.9
81006.1
78285.1
73674.3
71233
62996.6
58407.1
2372.45
2300.47
22922.1
37395.8
48975.9
54908.2
58539.3
60235.6
82238.9
81013.6
78310.3
76862.5
71241.9
66418.3
60927.4
2806.27
2299.15
21322.1
36643.8
47698.1
55058.5
58670.5
60306.2
82236.6
81052.1
80345.1
76945.1
73645
68563.4
62162.1
3572.72
3798.88
21685.5
36369.5
47819.9
54296.2
58651.8
60337.3
82212
81044.2
80367.5
77037.4
74965.7
70012.1
65693.6
2213.16
2240.05
20503.5
36319.5
47161.5
54292.4
58536.4
60250.9
82155.1
80999.7
80326.2
78405.8
75255.6
71136
70064.5
4335.25
2250.34
20354.6
36201.5
46735.1
54083.5
58360.2
60087.5
82099.6
80917.8
80239.6
78289
74977.9
70149.9
65961.1
11167.7
9470.03
22932
35905.7
46323.5
53777.9
58119.7
59883.4
82022.5
80820.4
80146.7
76641.3
74418.2
68585.9
62299.7
2312.2
2301.59
18666
34731.3
45940.8
53416.8
57896.1
59663.2
81947.7
80704.3
77958.3
76547.9
73017.4
67588.8
60678
2264.98
2346.52
18701.7
34104.9
46124.4
53855.3
57696.4
59415.5
81896.3
80655
77924.5
73287
70786.3
62544.6
57992.2
2290.34
2288.24
20586.3
36036.4
47649.6
53697.3
57493.6
59235.7
81894.3
80645.5
77989.5
73297.1
70800.6
62559.8
57859.2
2319.68
2297.08
21962.6
38800
47613.6
53679.9
57387.3
59143
81908.5
80661.8
78034
73410.2
70917.1
62680.1
57891.2
2324.92
2299.75
25508.3
38808.8
47645.1
53669.4
57333.3
59084.6
81912.7
80672.7
78060.5
73459.4
70973.1
62783.2
57959.4
2293.31
2297.08
25496.3
38895.6
47636.3
53660.9
57304.7
59050.3
79277.8
77608.5
74046
67699.7
56714.1
46182.5
19811.5
2327.1
2302.35
28770.1
41679.7
50053.4
55684.9
59055.1
60662.8
79213.7
77536.5
73944.7
67564.9
56501.7
45951.8
19837.6
2276.13
2303.98
28410
41492.1
49975.9
55616.3
59004.3
60616.5
79120.2
77434.9
73808.5
67384.4
56202.1
45430.3
19641.4
2267.87
2302.2
23120.3
41316.7
49881.6
55524.2
58929.3
60546.9
79013.4
77343.2
73633.6
67235.4
60820.3
45090.1
19662.7
2278.14
2300.68
23375.7
37345.1
49769.9
55405.3
58829.4
60454.6
78936.8
77278.9
73582.4
69987.7
60901.6
49403.9
26859.4
2284.95
2296.88
20448.1
35654.9
47083.7
55256.3
58735.1
60340.4
78877.3
77200.7
75346.2
70022.5
63494.7
52001.4
28307.5
2267.74
3124.33
20607.4
34635.8
46798.1
53371.8
58525.6
60194.4
78802.4
77118
75375.5
70051.2
64956.8
53591.5
32272.4
2301.93
2251.3
18978.2
33937.6
45181.6
53066.7
58275.3
59990.1
78731.2
77055.2
75338.4
71548.3
65242.3
55407.3
49535.3
3530.31
2319.09
16487.6
32832.8
44007.5
52703.3
58033.5
59784.5
78690.5
77001.1
75267.7
71450
65012.7
54277.2
35754.2
16070.2
2332.68
15256.1
31524.4
43346.9
52386
57831.8
59607.1
78663
76979.5
75197.5
69775.2
64530
52454.6
29105.8
2260.54
2298.78
9969.81
30382.4
43501.3
52164.3
57726.1
59494.8
78646.1
76979.3
73266.8
69781.5
63027.7
51325.5
27387.1
2254.54
2308.81
14186.3
30975.4
44902.4
53950.4
57706.3
59423.3
78672.2
77006.3
73312.5
66942.6
60547.6
44944.4
21219.2
2269.31
2286.57
19293
35396.9
48289.1
54151.4
57742.6
59436.6
78741.9
77073.5
73486.6
67146.5
56081.1
45164.5
19616
2295.29
3247.22
22528.4
40274.9
48718
54390.3
57845.4
59490.5
78808.1
77156.2
73623.8
67348.1
56443.8
45667.7
19562.6
2281.29
2303.71
28046.6
40731.7
48975.6
54551
57923.6
59537.1
78841.9
77206.3
73721.7
67518.6
56754.7
46168.7
19753.6
2276.96
2302.55
28339
41007.5
49105.3
54635.5
57962
59557.4
78518.7
76821.8
73179.8
66797.5
55805.5
43083
6938.15
2299.9
10183.9
36987.2
47860.7
54857
59472.9
62168.3
63452.4
78421.4
76709.9
73013.9
66536.5
55482.6
42081.3
5987.47
2243.82
8091.13
36223.5
47482.2
54651.8
59317.3
62057.8
63356.8
78267.9
76536.3
72770.9
66208.5
55462.8
40866.9
7842.53
2285.7
2307.92
27968.4
47145.7
54378.5
59071.3
61871.8
63195.9
78079.2
76347.4
72513
65954.6
57477
40022.8
9644.35
2294.88
2301.09
27837.6
41821.9
53998.4
58736.2
61612.9
62977.8
77907.2
76178.9
72366.5
67348.3
57083.4
42547.3
19456.1
2283.68
2300.45
23642.8
39179.1
50303.5
58350
61340.8
62724
77758.6
76021.2
73204.4
67091.6
58524.1
43760.4
19119.8
2302.46
3715.7
24337.7
37576
49579.3
55644.7
60997.3
62450.1
77616
75853.9
73087.8
66907.3
59223.9
43869.5
19058.8
2390.33
2298.92
24129.8
36525.5
47194.1
55068.9
60647
62164.1
77526
75760.9
73017.2
67921.4
59235.9
44380
17407.8
2917.03
2249.09
22252.8
34926
45458.7
54590.7
60367.6
61935.4
77503.1
75743.1
72982.3
67880.9
59247.9
44806.1
21612.1
2282.93
2220.86
14062.5
32635.9
44649
54295
60206.7
61779.3
77537.6
75802.4
72977.7
66847.1
59193.3
44545.9
24947.4
2320.6
2243.09
10349
31477.2
45304
54247.8
60200.3
61750.3
77603.9
75874.2
72072.7
67037.1
58355.2
43813.5
19881.3
2259.45
2266.93
14612.5
32777.2
47731.4
57045.9
60296.5
61800.6
77721.6
75999.9
72193.7
65702.5
57048.8
40178.5
18165.8
2278.44
2317.5
21344.9
39152.6
52437.5
57448
60510.3
61950
77875.4
76171.7
72474.9
66064.7
55590.6
40703.5
9733.18
2298.24
7870.42
27479.1
46038.6
53173.8
57916
60771.2
62125.7
78005.7
76336.3
72743.1
66474.5
55691.5
42897.6
6971
2243.81
10684.4
36248.9
46760
53643.2
58235
60959.2
62261.3
78078.3
76437.4
72931.8
66857.4
56253.9
44759.8
7694.31
2297
10764.3
36854.5
47265.1
53929.9
58416.1
61059.6
62330.3
80307.6
79089.4
76529.7
72399.8
63725.7
55238.5
19197.9
2351.73
38182.3
54777.1
58821
63035.5
65703.7
67265.6
68041
80177.7
78932.9
76289.2
71923.1
62852.1
53242.3
8894.14
2325.95
36274.9
53702.8
58224
62681.5
65469.1
67107.5
67907.9
79965.3
78683
75933
71254.7
64209.1
49335.9
16422.1
2382.11
19676.9
42194
57928.3
62186.1
65085.7
66838.5
67680
79696
78368.9
75469.3
70636.9
62666.5
47289.8
17080.2
2307.87
2488.01
39877.8
51361.8
61535.7
64558.1
66463.6
67373
79426.9
78052.7
75076.6
70078.9
61280.5
46704
21628.8
2303.84
7105
32541.7
47551.4
56997.7
64007.7
66065.4
67029.2
79183.6
77783.6
74734.8
69240.3
60693
45961.2
20834.4
2301.84
11327.6
32779.9
44571.6
55744.9
60654.9
65651.7
66681.1
78970.2
77519.1
74342.5
68661.6
60151.3
44488
19233.3
2445.42
60896.1
34635
41953.5
52562
59917
65261.5
66354.6
78853.4
77384.8
74166.5
68814
59653.3
43504
12070.8
2287.92
2330.16
2726.8
39337.1
50420.6
59423.1
64989.1
66124.1
78842.3
77391.6
74157.7
68798.5
59762
44425.9
20338.4
2241.27
2296.08
21705.9
38372.3
49934.1
59244.9
64872.9
66004.3
78933.6
77531
74286.4
68750.2
60196.2
45227.8
21137.7
19506.2
2196.79
18098.4
38356.3
51345.3
59391.1
64939
66031.7
79079.6
77693.6
74703.8
69293.3
60586.1
45868.2
20945.6
2303.21
2247.9
21381.8
40335.6
54560.2
62825.9
65078.4
66145.1
79282.6
77958.6
75069.5
70259.2
61565.5
46583.3
21112.4
2312.62
2300.72
30262.6
48346
60036.5
63308.8
65390
66365.5
79513.7
78259
75585.1
71103.3
64505.5
48945
17862.7
2312.19
16955.3
40194.1
56712.2
60964.8
63932.8
65736.6
66609.8
79701.7
78502.4
75976
71907.9
63308.6
55434.3
13478.3
2338.61
37799.1
53448.6
57472.9
61636.9
64354.2
65988.1
66797.9
79810.7
78660.3
76278.8
72627.6
65017.8
59160
35771.5
25282
44939.2
55667.3
58475.9
62122.1
64628
66135.6
66900.3
84108.4
83722.9
83031.7
83275.4
82487.5
93557.8
131902
135576
100574
80912.4
74407.5
73843.1
73546.6
73636.8
73774.4
83957.3
83530.9
82750.7
82667.8
81574.6
91927.2
131632
117765
93476.4
79070.7
73503.3
73328.2
73255.7
73449.1
73620.9
83699.7
83204.7
82284.8
81070.9
80834.2
75009.6
80468.8
72625.1
65016.7
67926.9
72281.3
72400.8
72767
73131.3
73357.9
83364.6
82778.8
81583.4
79976.3
75040.1
69122.6
55806.8
22545.6
35621.4
63686.8
66464.4
71353.5
72095.2
72694.3
73006.3
83016.6
82328.7
80953.4
77187.7
72916.9
63664.5
40931
2530.7
23802.1
51952.2
61255.4
66885.4
71425.1
72229.8
72624.7
82698.4
81941.8
79264.6
75946.7
69946.7
59661.8
39212.1
2759.17
22272.8
44179.5
55953.1
65251.1
68021.6
71791.1
72265.1
82427.9
81603.4
78669.6
75064
67983
55930.3
34428.9
2237.36
2233.29
29515.1
50768.5
61463.5
67247.5
71426.2
71946.6
82284.1
81432.1
78399.7
74198
66918
53266.6
23003.3
2258.52
2274.45
6656.41
47397.5
59208.6
66893.2
71196.2
71740.7
82272.9
81440.3
78387.8
74177.6
66977.8
54032.4
32382.5
2295.76
2320.33
29310.3
49318.2
59302.5
66839.6
71116.2
71650.8
82395.7
81621.6
78604
75154.5
67841.5
55806.8
30765.5
2302.81
2250.12
34833.8
51890.8
61409.8
67054.3
71197.8
71699.9
82591
81868.8
80416.7
75901.6
69639.7
58430.6
33773.5
2280.64
2324.56
41257.2
54830.7
65000.8
70442.9
71357.6
71814.2
82852.4
82245.7
81003
79307.8
73050.3
66369
41642.4
2874.67
22528.2
52776.2
63578.3
70038.6
70948.3
71683.9
72044.9
83137.3
82651.4
81773.6
80705.1
80860.3
72015.5
73209.9
81728.6
65703.4
64866
71010.5
71170.1
71620.1
72040.9
72302.6
83356.5
82953.4
82230.5
82401.9
81772.6
93980.3
143389
133184
94398.9
78252.8
72465.7
72140
72081.8
72304.3
72499.1
83483.8
83144.3
82557
83068.7
82804.9
93643.9
126618
129849
98430.2
80520.7
73642.9
72719.2
72386.7
72465.7
72611
88737.8
89150.2
89948
93253.9
97620.2
104259
127024
123617
114387
96116.3
88103.1
83976.8
81314.1
80214.7
79782.7
88601.8
88980.4
89790.6
93019.1
97742.5
105408
134295
138938
113845
96197.9
87441.5
83535.3
81062.3
80034.8
79634.2
88347.9
88621.4
89434.1
91368.2
96498.8
101087
125456
153610
119898
95133
86008.3
82525.7
80600.9
79719.9
79380.7
88003.7
88174.1
88682.5
90136.5
90691.8
98983.5
123864
168232
119792
92189.1
83183.3
81244.7
79917.4
79291.2
79039.1
87634.4
87682.8
87887.2
86564.5
87923.2
90239.9
103857
205785
108014
83976.7
78969
78243.9
79229
78841.6
78672.5
87296
87172.5
85615.8
85165.4
83595.3
82720.9
85674.5
116152
76123.1
72313.2
73814.2
76950.7
76766.9
78407.7
78347
87010.7
86812.1
85012.6
84176.4
80543.2
76839.7
62204
2235.13
2441.26
54397.4
69791.4
74226.2
76233
78100.5
78073.7
86855.8
86633.8
84714.3
82527.5
79423.5
73904.5
56098.5
2303.09
2309.37
51940.5
68663.6
72539.6
75954.9
77916.6
77903
86827
86616.3
84679.6
82488.5
79459.1
74506.4
57078.2
2275.24
39637.7
63107.1
70329.4
72746.4
75893.2
77835.3
77818.1
86934.1
86784.6
84882.2
84156.6
80384.1
77484.6
69602.8
34128.7
52787.6
70162
72437.8
74362.5
76021.3
77891.5
77846.6
87117.1
87110.5
87195.5
85005.5
83097.4
81423
81817.7
95929.5
87669.2
76774.5
74690.7
76709.2
78383.4
78065.4
77932.2
87369.4
87484.9
87858
89047.4
88067.8
93436.5
103262
160798
101931
84618.5
80423.7
80010.2
78843.3
78336.6
78127
87640
87880.9
88625.9
90438.1
95187.2
98663.7
120929
150387
112637
91658.7
84336.5
81140.4
79407
78629.1
78339.7
87826.1
88173.5
88896.6
92069.8
96582.4
103510
130628
127894
108397
93939.2
85719.7
82060.6
79782.3
78853.8
78501.7
87920.2
88301.2
89007.4
92050.1
95568.6
101601
116386
112324
108294
93763.1
86153.6
82423.5
80003.5
78979.3
78591.3
92860.3
93596.7
94677.8
97482.3
101500
100813
105851
109446
106227
97968.1
94182.2
90244.3
87294.8
85858.3
85156.6
92793.2
93529.4
94743.3
97800.4
102298
102912
108226
112876
106566
99470.4
94249.4
90190.2
87201.1
85744.6
85054.4
92637.1
93288.4
94769.9
97433.3
101965
105151
111178
122372
109899
101281
93859.8
89787.2
86990
85527.8
84871.3
92389.3
92990.7
94367.1
97245.8
99398.1
107288
119360
135773
118560
102073
93614.8
89199.5
86592.9
85218.4
84612.6
92085.9
92597.4
93792.2
94562.5
98548.7
105233
121273
144944
124522
103014
92591.7
87863.2
86124.1
84865.7
84317.2
91780.9
92094.5
91988.8
93491.2
95629.3
101720
118245
159047
125118
101788
91774.9
87523.2
84892.1
84455.3
84044.1
91535.5
91790.1
91563.1
92716.9
93624
98737.3
110745
152480
134920
104997
92796.1
87050.2
84713.6
84225.7
83831.5
91389.4
91624.1
91295.1
91471.6
92793.5
97392.6
109488
149852
167804
112894
94225.6
86769.7
84489.4
84063.9
83689.1
91324.6
91562.6
91217.9
91360.2
92748.1
97863.2
112718
181263
142923
107704
92908.7
86389.7
84314.4
83965
83589.6
91367.4
91647.1
91302.6
92467.6
93251.3
99108.6
115881
166243
135862
103952
91524.5
86254
84246.4
83965.2
83574.7
91489.6
91927.7
92968.8
93126.4
94808.4
100386
116329
150949
128573
102501
91124.2
86721.4
85280.5
84125.7
83623.2
91646.3
92165.4
93347.5
95869.9
97244.7
104427
116388
140478
119922
100713
91559.4
87926.8
85530
84291.4
83737.1
91792.1
92365.5
93665.4
95994.6
99751.9
103396
109841
120363
106655
98669.2
91939.7
88281.9
85770
84445
83851.7
91851.6
92505.3
93504.4
96279.7
99989.2
99516
102810
102932
101583
96361.8
92013.3
88521.1
85854.7
84547.6
83927.7
91855.7
92494.7
93338
95803.5
98348.5
97894.6
99691.9
103745
102357
95129.8
91801.5
88489.9
85883.6
84586.2
83962.1
95804.1
96443.1
97215.4
98397.3
101284
100466
102260
107440
101434
97747.8
96058.1
93330.3
91206.5
90053.4
89381.1
95818.4
96482.2
97379.8
98904.1
101898
101605
102699
105117
102031
99014.7
96353.6
93552
91264.1
90028.1
89344.1
95814.6
96436.1
97681.7
99492
102465
104078
107764
112036
107079
101283
96833.9
93740.7
91338.4
89962.7
89273.4
95747.1
96413.2
97787.3
100287
102180
106771
112700
116198
112857
103575
97908.4
93919
91357.2
89855.8
89156.8
95608
96268.6
97770.4