/*--------------------------------*- C++ -*----------------------------------*\
| =========                 |                                                 |
| \\      /  F ield         | OpenFOAM: The Open Source CFD Toolbox           |
|  \\    /   O peration     | Version:  v2012                                 |
|   \\  /    A nd           | Website:  www.openfoam.com                      |
|    \\/     M anipulation  |                                                 |
\*---------------------------------------------------------------------------*/
FoamFile
{
    version     2.0;
    format      ascii;
    class       volScalarField;
    location    "0.038";
    object      p_rgh;
}
// * * * * * * * * * * * * * * * * * * * * * * * * * * * * * * * * * * * * * //

dimensions      [1 -1 -2 0 0 0 0];


internalField   nonuniform List<scalar> 
449343
(
111374
111530
111797
112075
112232
112072
111364
110039
108145
105889
103565
101451
99743.8
98557.8
97952.5
111387
111545
111815
112099
112261
112109
111409
110092
108204
105951
103627
101508
99794.5
98603.1
97994.8
111410
111572
111849
112142
112315
112177
111491
110188
108312
106066
103740
101613
99887.6
98685.8
98071.7
111438
111604
111890
112197
112383
112264
111598
110312
108452
106215
103888
101749
100007
98790.5
98168.2
111464
111636
111932
112251
112452
112352
111707
110442
108599
106370
104042
101890
100129
98895.6
98264
111481
111657
111961
112292
112505
112421
111793
110547
108718
106497
104166
102003
100225
98976.5
98336.4
111483
111661
111970
112307
112526
112453
111834
110596
108778
106562
104228
102059
100269
99010.7
98364.8
111464
111643
111951
112287
112505
112432
111811
110571
108752
106541
104207
102036
100244
98982.8
98335.8
111425
111601
111905
112234
112444
112356
111725
110475
108649
106431
104098
101932
100147
98891.9
98248.3
111369
111541
111835
112152
112348
112239
111588
110320
108477
106249
103919
101762
99990.6
98749
98112.7
111304
111470
111753
112054
112233
112099
111424
110132
108269
106029
103700
101554
99801.3
98575.9
97948.7
111238
111398
111669
111954
112116
111959
111260
109944
108060
105809
103479
101344
99608.5
98399
97780.7
111180
111334
111596
111867
112013
111837
111117
109782
107881
105619
103287
101161
99439.7
98243
97632.1
111137
111287
111542
111802
111938
111748
111014
109665
107751
105482
103148
101027
99316
98128
97522.1
111114
111262
111513
111768
111899
111701
110960
109604
107683
105409
103075
100958
99250.8
98067.2
97463.8
111188
111392
111758
112188
112529
112589
112013
110622
108471
105875
103252
100940
99123.9
97885.1
97259.2
111201
111408
111778
112215
112563
112633
112066
110685
108543
105951
103327
101008
99182.6
97936.5
97306.6
111226
111436
111815
112265
112627
112713
112163
110802
108678
106096
103469
101136
99291.8
98031
97393.2
111256
111473
111863
112329
112709
112816
112289
110952
108855
106289
103660
101305
99434.3
98152.1
97503
111285
111508
111912
112395
112796
112921
112429
111125
109045
106499
103869
101487
99583.5
98276
97613.6
111304
111534
111949
112448
112866
113014
112541
111268
109218
106674
104044
101641
99705.9
98373.8
97698.9
111307
111540
111962
112471
112894
113064
112604
111344
109313
106774
104145
101725
99767.1
98418.8
97735.2
111289
111522
111944
112454
112877
113045
112582
111268
109283
106754
104129
101706
99743.3
98392
97706.5
111249
111479
111895
112395
112807
112958
112480
111200
109159
106623
103997
101583
99633.4
98291.5
97611.4
111190
111414
111819
112303
112700
112815
112311
111008
108937
106391
103766
101373
99451.9
98130.9
97462
111122
111339
111729
112191
112565
112649
112119
110779
108671
106117
103490
101121
99232.2
97937.1
97281.6
111054
111262
111637
112079
112430
112493
111926
110551
108426
105846
103216
100870
99011.9
97740.7
97097.8
110993
111196
111558
111983
112315
112359
111769
110371
108218
105619
102987
100658
98822.2
97569.3
96936.3
110949
111147
111501
111913
112232
112260
111656
110239
108069
105458
102825
100506
98684.9
97444
96817.5
110925
111121
111470
111876
112188
112208
111596
110171
107991
105375
102742
100428
98613.3
97378.1
96754.8
110718
111030
111624
112416
113223
113848
113672
112109
109272
105780
102426
99669.5
97619
96269.5
95601.5
110733
111049
111649
112450
113268
113907
113742
112196
109375
105892
102533
99762
97695.9
96334.6
95660.3
110761
111082
111695
112515
113355
114020
113872
112367
109573
106113
102746
99941.7
97841.8
96455.8
95768.9
110795
111125
111756
112602
113472
114165
114039
112594
109833
106419
103049
100192
98037.9
96614.5
95908.8
110829
111169
111821
112698
113599
114314
114212
112827
110132
106790
103399
100475
98252.2
96781.6
96052.8
110853
111204
111876
112780
113716
114450
114381
113070
110450
107095
103737
100733
98436.4
96919.1
96167.7
110859
111215
111899
112827
113762
114542
114492
113221
110644
107265
103959
100887
98541
96989.1
96221.5
110840
111199
111884
112815
113754
114548
114523
113050
110629
107254
103949
100875
98522
96964.6
96193.4
110798
111151
111828
112743
113661
114415
114333
113016
110424
107065
103769
100709
98380.4
96841.5
96080.7
110735
111079
111738
112621
113530
114212
114089
112721
110062
106727
103371
100399
98134.6
96640
95900.2
110661
110993
111628
112478
113345
113994
113836
112388
109644
106300
102926
100033
97844.2
96398.4
95682.7
110587
110908
111520
112337
113171
113800
113617
112115
109307
105882
102520
99687.3
97559.9
96157.6
95463.2
110523
110835
111429
112220
113025
113633
113434
111878
109044
105564
102196
99404.9
97322.3
95951.3
95272.9
110476
110782
111363
112136
112921
113510
113298
111708
108851
105345
101979
99211.2
97154.5
95802.8
95134.4
110451
110754
111330
112094
112869
113447
113226
111622
108751
105236
101871
99113.6
97068.4
95725.5
95061.8
109836
110306
111242
112616
114286
115951
116930
115028
110679
105304
100721
97360.5
95044.3
93590.4
92891.6
109853
110326
111271
112659
114347
116029
117019
115153
110828
105469
100877
97489.1
95147
93674.8
92966.4
109882
110365
111328
112747
114474
116191
117194
115415
111143
105835
101203
97746.4
95345.7
93834.2
93105.9
109920
110415
111407
112872
114652
116428
117318
115795
111539
106414
101716
98123.2
95621.7
94047.3
93288.6
109958
110469
111495
113013
114870
116643
116788
115845
112657
107174
102363
98583.3
95936.5
94278.1
93480.6
109986
110513
111581
113177
115094
115953
116944
116200
113233
108793
103107
99041.2
96226.2
94474.6
93637.9
109994
110532
111622
113258
114434
116106
117129
116489
113610
109230
104605
99321
96397.1
94581.1
93716.2
109975
110518
111616
113254
114435
116153
117210
116460
113696
109338
104686
99320.3
96392.9
94559.8
93686.1
109930
110464
111546
113163
114354
116032
117026
116327
113461
109085
104459
99074
96189.8
94399.7
93548.3
109863
110381
111431
112996
114866
115786
116726
115945
112961
108562
102542
98581.4
95841.1
94136.6
93322.7
109783
110284
111288
112768
114566
116254
116453
115486
112364
106468
101703
98008.8
95434.5
93825.3
93052
109705
110189
111157
112583
114307
116012
116801
115185
110831
105700
101036
97501.6
95055.3
93520.7
92782.3
109638
110109
111050
112432
114110
115771
116692
114839
110507
105171
100546
97117.7
94750.6
93265.8
92552.1
109589
110052
110975
112330
113974
115609
116530
114605
110234
104845
100244
96866.3
94541.6
93085.7
92386.8
109564
110023
110938
112280
113909
115532
116449
114496
110106
104701
100104
96743.3
94436.3
92993.1
92301
108343
108983
110311
112416
115352
119003
122886
120205
112751
103601
97377.6
93573.7
91177.5
89760.4
89107.5
108358
109003
110342
112465
115426
119106
122991
120319
112957
103842
97590.6
93741
91308.1
89865.5
89199.4
108386
109042
110403
112569
115599
119342
123239
120609
113446
104382
98053.6
94083.1
91564.9
90066.6
89372.2
108422
109093
110492
112749
115937
119811
121237
121175
115577
105618
98905.5
94626.2
91932.6
90340.6
89601.5
108457
109146
110598
112945
116251
118500
121655
121817
116621
108729
100026
95308.3
92371.6
90643.4
89846.2
108483
109199
110723
113275
115506
118970
122183
122495
117675
110084
102900
96054
92780.5
90913.3
90050.8
108485
109206
110743
112674
115644
119283
121469
122246
118555
111727
103860
98274.3
92990.3
91042.8
90151.1
108467
109196
110800
112670
115697
119359
121613
122467
118935
112126
104199
98447.5
93098.5
91011.3
90121.4
108418
109135
110666
112592
115592
119204
121411
122175
118520
111738
103766
98148.1
92712.8
90814.5
89947.6
108354
109059
110561
113070
115326
118818
121014
121509
117576
109699
102610
95397.1
92272.4
90496.3
89674.4
108276
108952
110378
112676
115902
118287
121314
121312
116069
108408
99042.2
94524.7
91738.1
90100
89344.4
108200
108858
110229
112439
115556
119329
120831
120740
115223
104609
97994.2
93839.9
91250
89726.6
89021.1
108136
108779
110114
112238
115210
118880
122679
120195
112689
103567
97254.2
93338
90876.5
89421.5
88749.6
108090
108723
110037
112123
115034
118661
122462
119851
112295
103131
96867.7
93034.1
90628
89209.8
88557.5
108066
108695
109999
112069
114961
118568
122373
119691
112136
102942
96693.8
92888.6
90504.8
89102.4
88458.7
105988
106748
108386
111185
115626
122590
128231
133399
119440
98178.3
91123.6
87720.3
85743
84694.3
84247.6
105999
106763
108411
111229
115703
122693
128319
133528
119619
98477.6
91380.4
87916.6
85896
84816.4
84353.4
106018
106792
108460
111310
115854
122929
128535
133854
120065
99085.4
91887.7
88300.1
86198
85051.7
84553.8
106041
106831
108540
111493
116418
121036
129031
134557
121017
104594
93005.8
88903.7
86638.9
85378.9
84822.6
106058
106858
108604
111699
115356
121599
129917
133102
123748
107106
97506.4
89813
87149.7
85735.8
85111.8
106071
106879
108733
111381
115675
120991
128670
133260
126046
111521
99425.2
93203.9
87700.2
86046.9
85354.6
106056
106857
108755
111487
115956
121238
128223
134431
128455
114544
102395
94068.1
87968.3
86187.7
85468.6
106024
106811
108754
111554
115297
120792
128491
135077
129645
115583
103076
94311.5
90144.7
86075.4
85410.6
105986
106779
108657
111454
115208
121156
128255
134550
128763
114748
102433
93801.9
87557.7
85896.9
85222.5
105937
106734
108564
111226
115640
120873
127607
133202
126424
112540
100799
92854.4
87027.1
85539
84911
105872
106658
108373
111412
115121
121394
127728
132710
123557
108873
97040.5
88728.5
86353.4
85089.9
84531
105815
106591
108268
111169
116013
120707
128665
134026
120357
104116
91780
87918.1
85825.9
84671.4
84164.6
105765
106525
108165
110971
115451
122440
128140
133385
119560
98099.6
90932.8
87430.7
85412.7
84328
83861.4
105729
106481
108103
110882
115301
122226
127862
133051
119098
97699.5
90574.6
87129.7
85143.4
84095.2
83650
105710
106459
108073
110835
115226
122133
127757
132897
118901
97500.1
90391.7
86977.5
85010.7
83978.2
83542.2
102552
103282
104907
107861
112886
119837
136379
166127
121986
89398.2
79940.3
79055.6
78570.3
78465.2
78457.4
102555
103286
104918
107881
112926
119886
136429
166194
122136
89618.8
80196.1
79254.9
78733.2
78595.7
78570.5
102557
103289
104924
107875
112918
119985
136517
166369
122512
90201
80605.4
79638.8
79052.6
78844.9
78784.7
102554
103290
104932
107783
112487
120568
136825
166684
123224
91603.8
85212.9
80120.6
79516.5
79191.5
79073.7
102531
103254
104835
108010
112693
119949
134301
167422
126707
98376.4
87049.6
83683.4
79992.8
79568.2
79383
102495
103153
105396
108160
112598
120194
133402
163810
136742
105228
92180.1
85048.5
82694.1
79863
79639.8
102467
103123
105427
108217
112731
119967
133768
165540
144857
111229
96264.3
88104.8
83216.4
80046.9
79771.2
102415
103069
105474
108232
112744
120008
133926
166656
150858
114792
97834.9
88642.8
83429.4
79985.4
79673.8
102395
103044
105371
108181
112685
119892
133706
165872
147360
112472
96720
88077
82991.5
79733.3
79494
102360
103010
105284
107995
112512
119651
133209
163764
137393
105862
93572.4
86597.5
82221.9
79295.4
79142.5
102343
103049
104599
107794
112458
119754
132733
162255
131458
100315
89024.6
82925
79062.3
78836.6
78733.9
102328
103049
104659
107461
112096
120164
133586
166237
123110
95359.7
84245.6
78968.6
78593.7
78404.1
78348.3
102306
103025
104631
107540
112525
119630
136103
165912
122095
89607.6
79550.9
78673.8
78189
78055.6
78032.7
102290
103009
104615
107539
112534
119498
135959
165747
121788
89090.1
79354.2
78415.2
77926.1
77821.8
77815.6
102280
102998
104600
107518
112496
119413
135900
165648
121613
88859.4
79213.3
78283.2
77796.2
77703.6
77705.5
97980.5
98418.7
99393.3
101181
104128
111008
118585
116447
26239
57575.4
64108.2
67836.3
70142.7
71559.9
72202.2
97975.3
98413.7
99390
101178
104137
111005
118588
116378
26407.6
57771.3
64317.4
68035.3
70310.2
71690.6
72314.7
97959.5
98391.5
99368
101166
104109
110985
118582
116351
26609.4
58354
64797.4
68512.8
70653.6
71944.8
72530.6
97930.6
98343
99309
100976
105574
110709
118475
116315
27052.8
59913.1
67542.2
69421.7
71204.6
72310.5
72828.7
97874.2
98262.4
99169.9
102282
105492
111334
119439
116159
30205.8
67167.2
71557.1
72302.4
71909.2
72748
73156.3
97780
98157.5
100413
102282
106128
111774
119417
115614
61908.9
77135.2
76813.4
73798.4
74210.3
73161.4
73427.8
97756.4
98129.8
100440
102263
106477
111837
119350
114616
99721.3
89348.7
81345.7
76863.9
74728.6
73392.6
73578.9
97707.7
98063.8
100396
102916
106489
111827
119225
113445
122849
97863.6
83981.3
78788.5
74868.7
73364.8
73513
97687.4
98054.7
100342
102846
106412
111730
119159
113938
111568
93399.4
82422.4
78124.9
74446.5
73069.2
73291.9
97640.3
98007.8
100290
102060
106261
111568
119110
115084
56935.1
78353.2
77473.4
75104.7
73665
72569.8
72902
97687.2
98060.8
98937.4
102021
105811
111393
119017
115535
30579.5
67470.4
72636.4
71457.2
70934.7
71973
72463.6
97710.2
98107.4
99040.6
100662
105198
110057
117841
115814
27213.7
61081.6
66331.4
68184.5
70218.2
71473.3
72057.5
97716.6
98136
99086
100845
103742
110398
118035
115798
26174.2
57766.5
63757.6
67514.5
69752.1
71115.5
71738
97721.1
98149
99102.9
100856
103773
110576
118095
115802
27088.2
57369.1
63511.5
67189
69479.5
70885.1
71525.3
97721.1
98149.5
99103.5
100860
103767
110583
118094
115810
26001.8
57194.2
63432.6
67070.2
69352.8
70771.7
71419.6
92554.4
92455.7
92232.2
91888.4
91813.6
95986.8
99859
113225
6440.85
35369.7
49598.6
57223.2
62182.3
65064.7
66356.6
92545.7
92446.7
92226.1
91886
91829.6
95974.1
99847.5
113044
2328.7
35517
49754.2
57418.5
62339.5
65184.2
66458.6
92526.9
92426.5
92216.7
91931.9
91859.6
95947.7
99821.4
113006
2258.46
36052
50308.6
57897
62671.9
65429.3
66660.3
92498.5
92380.6
92183.3
92059.5
94847.8
96033.1
99744.4
112999
2792.22
37431.4
51453.5
58886.7
63255.1
65808
66952.4
92456.2
92327.2
92230.2
94254.3
95052.9
98141
101077
113169
2488.1
40262.1
54129.1
60889.6
64048.5
66301.5
67295.7
92393.5
92354.1
93931.7
94315
96536.2
99222.5
101240
113018
39845
47622.8
57849
62328.7
65617.5
66777.9
67596.8
92381.8
92348.8
93912
94380
97339.3
99366.2
101421
113096
20704.6
53325.5
61271.8
64279.2
66139.4
67007.6
67743
92340.3
92300.6
93862.8
95416.7
97339.4
99407.8
101461
112944
12879.8
58043
63398.5
65451.1
66305.9
66980.2
67680.3
92307.9
92269.1
93798.6
95331.8
97236.9
99255.1
101268
112738
48962.2
58864.2
62591.9
64946.4
65921.5
66658.9
67442.8
92261
92205.7
93734.7
94154.5
97057.5
98992.4
100963
112540
16916.4
49076.2
58683.3
62795.1
65138.5
66149.7
67049.1
92275.4
92135.8
92003.9
93986.5
96176.8
98777.2
100703
112403
2611.28
40455.2
54508.7
60078.1
63034.3
65499
66575.6
92286.8
92153.3
91921.1
91756.6
94610.5
95817.9
99555.1
112593
2450.08
36701.5
50752.8
57702.8
62255.4
64948.6
66154.4
92298.3
92187.5
91955.3
91632.8
91519.8
95550.4
99303.6
112423
5822.52
35623.6
49343.4
56934.2
61772.3
64584.7
65846
92309.6
92203.5
91967.2
91598.5
91503.9
95551.1
99351.7
112465
3366.94
35250.3
49027.4
56605.4
61511.6
64366.8
65651.4
92315.1
92210.2
91972.8
91603.5
91492.9
95581.7
99376.7
112497
3738.76
35114.1
48983.2
56488.1
61397.2
64266.9
65558.2
86992.3
86295.5
84840.9
82513
82123.2
80863.7
83431.8
2172
26896.9
41830.8
50647.7
56718.3
60338.4
62019.3
86981.8
86283.4
84832.6
82511.9
82115.1
80844.1
83404.6
2204.2
26936.3
41919.7
50791.6
56828.2
60424.7
62093
86968.3
86276.7
84832.9
82540.4
82165.4
80863.7
83357
2209.34
27043.7
42301.9
51097.7
57056.8
60606.5
62240.3
86961.2
86278.8
84838.8
82754.4
82545.5
80935.7
83341.8
2226.97
27688
41836.1
51799.5
57459.8
60892.2
62457.7
86972
86306.4
85072.6
85041.1
83338.1
83467.5
84493.5
2235.25
26837.4
42484.8
52189.6
57980.6
61265
62718.7
86976
86461.1
86681.4
85479.4
85100.8
84982.3
85150
2240.71
28540.9
43649.8
52892.8
58479.2
61510
62943.9
86982.5
86496.3
86688
85718.4
86229.8
85646.8
86217.6
2154.86
28582.4
44812
53529.6
58790.9
61592.6
63008
86948
86469.4
86666.8
86675.9
86437.7
85992.4
86866.8
2269.29
28263.6
45522
53979.1
58729.5
61513.3
62911.9
86909.9
86414.8
86590.4
86588.4
86266.4
85624.7
86165.3
6310.81
31436.1
45483.1
53640.3
58432.8
61233.3
62693.8
86842
86313.6
86501.8
85422.1
85823.9
84912.8
85024.3
2744.05
29470
43812.9
52461.8
57931.2
60870.2
62374.5
86795.9
86115
84843.2
84839.7
84564.2
84294.3
84221.5
2330.65
26590.5
41760.1
51239.5
56974.7
60444.8
61975.9
86761.1
86064.2
84590.7
82470.5
82380.3
80746.1
82771.5
2350.46
25763.2
40980.2
50673.7
56469.3
60022.6
61641.2
86757.7
86061.6
84603.9
82278.2
81930.9
80509.2
82889.7
2365.97
26566.5
41451.3
50185
56166.2
59755.4
61413.3
86769.5
86070.4
84615
82278.2
81895.4
80501
82925.8
2390.46
26623.6
41271.5
50013.9
56008.7
59603.1
61275.7
86779.2
86082.3
84627.7
82288
81862.8
80508.8
82954.1
2395.78
26693.4
41264.3
49938.6
55940.8
59537.6
61212.3
82233.6
80981
78342.8
73705.7
71245.4
63173.1
58646.9
2438.96
2168.98
26047.9
39536.7
48477.1
54573.3
58249.8
60004.9
82213.5
80958
78311.1
73663.1
71194.8
63095.4
58571.5
2857.66
2197.44
25917.9
39504.8
48530.7
54607.3
58281.5
60031.3
82185.1
80931.9
78272.3
73577.3
71136.6
62957.8
58314.1
2290.78
2211.81
22280.4
39700.1
48631
54686.4
58350.6
60083.2
82163.4
80927.6
78206.6
73595.8
71149.6
62913.2
58321.3
2327.21
2240.27
22838.8
37312.4
48897.4
54829.7
58460.9
60157.1
82180
80954.7
78251.4
76798.7
71178.2
66352.1
60859.9
2774.08
2254.75
21254.7
36577.6
47634.3
54999.6
58611.6
60247.3
82197.4
81012.8
80301
76901
73598.4
68515.6
62114.3
3526.63
3751.05
21637.7
36321.6
47775.7
54252.1
58612.5
60298.1
82192.4
81024.5
80343
77012.9
74937.5
69983.9
65665.4
2188.24
2239.49
20475.3
36291.3
47134.5
54267.9
58516.8
60231.3
82155.1
80999.7
80321.3
78398.5
75247
71127.4
70055.9
4326.05
2250.16
20346.1
36192.9
46726.5
54078.6
58360.2
60087.5
82119.2
80937.5
80254.3
78301.3
74988.9
70160.9
65972.2
11178.2
9481.07
22943
35916.7
46334.5
53792.6
58139.3
59903
82061.8
80859.6
80181
76675.7
74448.9
68616.5
62330.4
2312.51
2301.76
18696.6
34761.9
45972.7
53451.1
57935.3
59702.4
82006.6
80763.2
78017.2
76601.9
73068.9
67639.1
60728.3
2265.02
2389.97
18752
34155.2
46178.4
53914.2
57755.3
59474.4
81974.8
80733.4
78003
73365.5
70859.9
62618.2
58063.3
2290.66
2320.09
20657.4
36110
47728.1
53775.8
57572.1
59314.2
81992.4
80743.6
78087.6
73395.2
70893.8
62653
57950
2324.21
2373.52
22055.8
38898.1
47711.7
53778
57485.4
59241.1
82026.2
80779.5
78151.7
73527.9
71029.9
62793
58001.6
2326.5
2392.01
25626
38926.6
47762.8
53787.1
57451
59202.4
82050
80810.1
78197.8
73596.7
71105.6
62915.6
58089.4
2295.97
2405.02
25633.6
39032.9
47773.7
53798.2
57442
59187.7
79140.4
77471.2
73908.6
67562.4
56576.8
46040.3
19666.8
2231.86
2177.31
28632.8
41542.4
49916.1
55547.6
58917.8
60525.5
79096
77418.8
73827
67447.1
56383.9
45829.2
19712.5
2275.28
2197.09
28292.2
41374.4
49858.2
55498.6
58886.6
60498.8
79022.1
77336.8
73710.4
67286.3
56104
45327.3
19536
2267.37
2217.4
23017.3
41218.6
49783.5
55426.1
58831.2
60448.8
78934.9
77264.8
73555.1
67157
60737
45006.8
19576.9
2277.62
2240.43
23292.3
37261.7
49691.4
55326.8
58750.9
60376.1
78878
77220.1
73523.6
69924
60837.8
49337.7
26791.9
2283.99
2256.88
20380.7
35588.7
47020
55197.5
58676.2
60281.6
78838.1
77161.5
75302.1
69978.3
63448.1
51953.6
28259.7
2266.84
3076.61
20559.6
34587.9
46753.9
53327.6
58486.3
60155.1
78782.8
77098.4
75351
70026.7
64928.6
53563.3
32244.2
2295.48
2249.91
18950
33909.4
45154.6
53042.2
58255.7
59970.5
78731.2
77055.2
75333.4
71540.9
65233.8
55398.7
49526.7
3521.89
2318.58
16479
32824.3
43998.9
52698.4
58033.5
59784.5
78710.2
77020.7
75282.4
71462.3
65023.7
54288.3
35765.3
16081.2
2335.74
15267.2
31535.5
43358
52400.7
57851.5
59626.7
78702.2
77018.7
75231.8
69809.5
64560.6
52485.2
29136.5
2260.7
2298.87
10000.5
30413
43533.1
52198.7
57765.4
59534.1
78705
77038.1
73325.7
69835.4
63079.2
51375.8
27437.4
2254.6
2313.08
14236.6
31025.7
44956.3
54009.3
57765.1
59482.2
78750.7
77084.8
73391
67021.1
60621.2
45018
21290.3
2269.44
2310.16
19364.1
35470.5
48367.5
54229.9
57821.1
59515
78840
77171.6
73584.7
67244.6
56179.2
45257.7
19706.8
2298.54
3340.36
22621.6
40373
48816.1
54488.4
57943.5
59588.6
78925.8
77273.9
73741.5
67465.8
56561.5
45780.6
19672.9
2282.23
2400.27
28164.3
40849.4
49093.3
54668.7
58041.4
59654.8
78979.3
77343.6
73859
67656
56892
46301.1
19883.6
2277.35
2414.77
28476.4
41144.9
49242.6
54772.9
58099.4
59694.8
78381.3
76684.5
73042.4
66660.2
55668.2
42945.7
6795.9
2263.41
10046.5
36849.9
47723.3
54719.7
59335.6
62030.9
63315
78303.6
76592.2
72896.1
66418.8
55364.9
41963.6
5864.85
2243.35
7973.43
36105.8
47364.5
54534.1
59199.6
61940.1
63239.1
78169.8
76438.2
72672.8
66110.4
55364.7
40763.9
7739.52
2285.06
2216.47
27865.4
47047.6
54280.4
58973.2
61773.7
63097.8
78000.8
76268.9
72434.5
65876.1
57393.6
39939.4
9560.97
2294.27
2234.9
27754.2
41738.5
53919.9
58657.7
61534.4
62899.3
77848.3
76120
72307.6
67284.6
57019.6
42481.1
19388.6
2283.23
2247.51
23575.4
39112.9
50239.7
58291.2
61281.9
62665.1
77719.4
75981.9
73160.2
67047.5
58477.6
43712.6
19072
2279.36
3667.99
24289.9
37528.2
49535.1
55600.6
60958
62410.9
77596.4
75834.2
73063.2
66882.8
59195.7
43841.3
19030.6
2368.75
2289
24101.6
36497.3
47167.1
55044.4
60627.4
62144.4
77526
75760.9
73012.3
67914
59227.3
44371.4
17399.2
2909.04
2247.97
22244.2
34917.4
45450.1
54585.8
60367.6
61935.4
77522.7
75762.7
72997
67893.2
59258.9
44817.1
21623.1
2287.45
2221.11
14073.6
32646.9
44660
54309.8
60226.3
61798.9
77576.8
75841.7
73012.1
66881.5
59224
44576.6
24978.1
2338.04
2243.22
10379.6
31507.9
45335.9
54282.1
60239.6
61789.5
77662.7
75933.1
72131.6
67091
58406.7
43863.7
19931.6
2259.53
2267.02
14662.8
32827.5
47785.4
57104.7
60355.3
61859.5
77800.1
76078.4
72272.1
65780.9
57122.3
40252
18237
2278.67
2344.69
21416
39226.2
52516
57526.5
60588.8
62028.5
77973.5
76269.8
72573
66162.8
55688.7
40796.7
9826.38
2303.22
7963.61
27572.3
46136.7
53271.9
58014.1
60869.3
62223.8
78123.4
76454
72860.8
66592.2
55809.2
43015.3
7083.82
2244.06
10802.1
36366.6
46877.7
53760.9
58352.7
61076.9
62379.1
78215.6
76574.8
73069.1
66994.8
56391.2
44897.1
7826.74
2297.71
10901.6
36991.9
47402.5
54067.2
58553.4
61196.9
62467.7
80170.3
78952
76392.3
72262.4
63588.4
55101.2
19060.6
2242.33
38044.9
54639.8
58683.6
62898.2
65566.4
67128.3
67903.6
80060
78815.2
76171.4
71805.4
62734.3
53124.6
8776.63
2273.9
36157.2
53585.1
58106.3
62563.8
65351.4
66989.8
67790.2
79867.2
78584.9
75834.9
71156.6
64111
49232.9
16319.1
2381.2
19573.9
42091
57830.2
62088
64987.6
66740.4
67581.9
79617.5
78290.5
75390.8
70558.5
62583.1
47206.4
16996.8
2305.91
2404.01
39794.4
51278.4
61457.2
64479.6
66385.2
67294.5
79368.1
77993.9
75017.7
70015.1
61216.8
46637.7
21561.4
2289.32
7037.57
32474.3
47485.2
56933.9
63948.8
66006.5
66970.4
79144.3
77744.3
74690.7
69196.1
60646.4
45913.3
20786.6
2282.19
11279.8
32732.1
44523.7
55700.7
60610.7
65612.5
66641.9
78950.6
77499.4
74318
68637
60123
44459.8
19205.1
2429.28
60867.9
34606.8
41925.3
52535
59892.5
65241.9
66334.9
78853.4
77384.8
74161.6
68806.7
59644.8
43495.4
12062.2
2287.72
2327.44
2718.78
39328.5
50412
59418.2
64989.1
66124.1
78862
77411.2
74172.4
68810.8
59773
44436.9
20349.5
2241.86
2298.02
21717
38383.4
49945.2
59259.6
64892.5
66023.9
78972.9
77570.3
74320.8
68784.6
60226.9
45258.5
21168.4
19536.8
2197.3
18129.1
38386.9
51377.2
59425.5
64978.3
66070.9
79138.4
77752.4
74762.6
69347.2
60637.6
45918.5
20995.9
2345.4
2248
21432.1
40385.9
54614.1
62884.7
65137.2
66204
79361.1
78037
75148
70337.7
61639
46656.9
21183.5
2314.37
2312.23
30333.7
48419.6
60115
63387.3
65468.5
66444
79611.8
78357.1
75683.2
71201.4
64603.6
49038.2
17955.8
2317.93
17048.4
40287.3
56810.3
61062.9
64030.9
65834.7
66707.9
79819.4
78620.2
76093.7
72025.6
63426.3
55552
13595.9
2402.51
37916.8
53566.4
57590.6
61754.6
64471.9
66105.8
66915.7
79948
78797.7
76416.1
72764.9
65155.1
59297.4
35908.7
25419.3
45076.5
55804.6
58613.2
62259.5
64765.3
66272.9
67037.6
83971
83585.6
82894.4
83138
82350.1
93420.5
131764
135439
100437
80775.1
74270.2
73705.7
73409.3
73499.4
73637.1
83839.6
83413.2
82633
82550.1
81456.9
91809.5
131514
117647
93358.7
78953
73385.6
73210.5
73137.9
73331.3
73503.2
83601.6
83106.6
82186.7
80972.8
80736.1
74906.6
80365.8
72522.1
64913.7
67823.9
72183.2
72302.7
72668.9
73033.2
73259.8
83286.2
82700.3
81504.9
79897.8
74956.7
69039.2
55723.4
22459.7
35535.5
63603.4
66381.1
71275
72016.8
72615.8
72927.8
82957.7
82269.8
80894.5
77124
72853.1
63598.3
40863.5
2463.5
23734.6
51884.8
61189.2
66821.7
71366.2
72171
72565.9
82659.2
81902.6
79220.5
75902.5
69900.1
59614
39164.3
2711.69
22225
44131.7
55905.3
65206.9
67977.5
71751.9
72225.8
82408.2
81583.8
78645.1
75039.4
67954.8
55902.1
34400.7
2236.42
2228.12
29486.9
50740.3
61436.6
67223
71406.6
71927
82284.1
81432.1
78394.8
74190.6
66909.4
53258
22994.8
2255.16
2274.4
6647.82
47388.9
59200
66888.3
71196.2
71740.7
82292.5
81459.9
78402.5
74189.8
66988.8
54043.4
32393.6
2302.24
2328.01
29321.3
49329.2
59313.5
66854.3
71135.8
71670.4
82435
81660.9
78638.3
75188.8
67872.2
55837.4
30796.2
2323.34
2251.61
34864.5
51921.4
61441.7
67088.7
71237.1
71739.2
82649.8
81927.6
80475.5
75955.5
69691.2
58480.9
33823.8
2321.54
2357.33
41307.5
54881
65054.7
70501.7
71416.4
71873
82930.9
82324.2
81081.5
79386.2
73123.8
66442.5
41713.5
2944.49
22598.1
52847.4
63651.8
70117.1
71026.8
71762.4
72123.3
83235.4
82749.5
81871.7
80803.2
80958.4
72108.7
73303.1
81821.8
65796.6
64959.2
71108.6
71268.2
71718.2
72139
72400.7
83474.2
83071.1
82348.2
82519.6
81890.3
94098
143506
133301
94516.7
78370.6
72583.4
72257.7
72199.5
72422
72616.8
83621.1
83281.7
82694.3
83206
82942.2
93781.2
126755
129986
98567.6
80658.1
73780.2
72856.6
72524
72603.1
72748.4
88600.5
89012.8
89810.6
93116.6
97482.9
104121
126887
123480
114250
95979
87965.8
83839.5
81176.8
80077.4
79645.4
88484.1
88862.6
89672.8
92901.3
97624.8
105290
134177
138821
113728
96080.2
87323.8
83417.6
80944.6
79917.1
79516.4
88249.8
88523.3
89336
91270.1
96400.7
100984
125353
153507
119795
95030
85910.2
82427.6
80502.8
79621.8
79282.6
87925.2
88095.6
88604.1
90058
90608.4
98900.1
123780
168146
119706
92105.7
83099.9
81166.3
79838.9
79212.7
78960.6
87575.5
87623.9
87828.3
86500.7
87859.4
90173.7
103790
205718
107946
83909.3
78902.8
78180.1
79170.2
78782.7
78613.7
87256.8
87133.2
85571.6
85121.2
83548.7
82673.1
85626.6
116104
76075.3
72265.3
73766.4
76906.5
76722.7
78368.4
78307.7
86991.1
86792.5
84988
84151.9
80515
76811.5
62175.8
2218.85
2414.09
54369.2
69763.2
74199.2
76208.4
78080.9
78054.1
86855.8
86633.8
84709.4
82520.1
79414.9
73895.9
56089.9
2298.14
2305.07
51931.9
68655
72531
75950
77916.6
77903
86846.7
86635.9
84694.3
82500.7
79470.2
74517.4
57089.2
2280.67
39648.7
63118.1
70340.4
72757.5
75908
77854.9
77837.7
86973.3
86823.9
84916.5
84190.9
80414.7
77515.3
69633.4
34159.4
52818.2
70192.7
72468.5
74394.4
76055.6
77930.8
77885.9
87176
87169.4
87254.4
85059.5
83148.9
81473.3
81867.9
95979.8
87719.4
76824.8
74740.9
76763.2
78442.2
78124.3
77991
87447.9
87563.4
87936.4
89125.9
88141.4
93510
103333
160868
102001
84689.6
80497.3
80088.7
78921.7
78415
78205.5
87738.1
87979
88724
90536.2
95285.3
98756.9
121022
150480
112730
91751.9
84434.6
81238.5
79505.1
78727.2
78437.8
87943.8
88291.2
89014.3
92187.5
96700.1
103628
130746
128012
108515
94056.9
85837.4
82178.3
79900
78971.5
78619.4
88057.5
88438.6
89144.7
92187.5
95705.9
101739
116524
112461
108431
93900.4
86290.9
82560.9
80140.8
79116.7
78728.6
92722.9
93459.4
94540.5
97345
101363
100676
105714
109309
106090
97830.8
94044.8
90107
87157.4
85721
85019.3
92675.4
93411.7
94625.5
97682.7
102180
102795
108108
112759
106448
99352.7
94131.7
90072.5
87083.4
85626.9
84936.7
92539
93190.3
94671.8
97335.2
101867
105048
111075
122269
109796
101178
93761.7
89689.1
86891.9
85429.7
84773.2
92310.8
92912.2
94288.6
97167.3
99314.7
107205
119276
135687
118474
101989
93531.5
89121
86514.4
85139.9
84534.1
92027
92538.5
93733.4
94498.8
98484.9
105167
121206
144876
124455
102946
92525.5
87799.5
86065.3
84806.9
84258.4
91741.7
92055.2
91944.6
93447.1
95582.8
101672
118198
158999
125070
101740
91727.1
87479
84848
84416.1
84004.9
91515.9
91770.5
91538.6
92692.4
93595.8
98709
110717
152452
134892
104969
92767.9
87023.2
84689.1
84206.1
83811.9
91389.4
91624.1
91290.2
91464.2
92784.9
97384
109479
149844
167796
112885
94217
86761.1
84484.5
84063.9
83689.1
91344.2
91582.2
91232.6
91372.5
92759.2
97874.3
112729
181274
142934
107715
92919.7
86400.7
84329.1
83984.6
83609.2
91406.6
91686.4
91336.9
92501.9
93281.9
99139.2
115911
166274
135893
103982
91555.1
86285.9
84280.8
84004.4
83614
91548.5
91986.5
93027.7
93180.4
94859.9
100436
116379
150999
128623
102551
91174.4
86775.3
85339.4
84184.6
83682
91724.8
92243.8
93425.9
95948.4
97318.3
104501
116460
140547
119992
100784
91633
88005.3
85608.5
84369.9
83815.6
91890.2
92463.6
93763.5
96092.7
99850
103490
109934
120456
106749
98762.4
92037.8
88380
85868.1
84543.1
83949.8
91969.3
92623
93622.2
96397.4
100107
99633.7
102928
103049
101701
96479.5
92131
88638.8
85972.4
84665.3
84045.4
91993.1
92632
93475.3
95940.8
98485.8
98031.9
99829.3
103882
102494
95267.2
91938.8
88627.2
86020.9
84723.6
84099.5
95666.7
96305.7
97078
98259.9
101147
100329
102122
107303
101297
97610.4
95920.7
93193
91069.2
89916.1
89243.8
95700.7
96364.5
97262.1
98786.3
101780
101487
102581
105000
101913
98897
96235.9
93434.3
91146.4
89910.4
89226.4
95716.5
96338
97583.6
99393.9
102367
103975
107661
111933
106976
101180
96735.8
93642.6
91240.3
89864.6
89175.3
95668.6
96334.8
97708.8
100208
102096
106687
112617
116112
112771
103491
97825
93840.5
91278.7
89777.3
89078.3
95549.2
96209.8
97711.5
98871.4
102776
108038
116176
123278
117307
106962