/*--------------------------------*- C++ -*----------------------------------*\
| =========                 |                                                 |
| \\      /  F ield         | OpenFOAM: The Open Source CFD Toolbox           |
|  \\    /   O peration     | Version:  v2012                                 |
|   \\  /    A nd           | Website:  www.openfoam.com                      |
|    \\/     M anipulation  |                                                 |
\*---------------------------------------------------------------------------*/
FoamFile
{
    version     2.0;
    format      ascii;
    class       volScalarField;
    location    "0.037";
    object      p;
}
// * * * * * * * * * * * * * * * * * * * * * * * * * * * * * * * * * * * * * //

dimensions      [1 -1 -2 0 0 0 0];


internalField   nonuniform List<scalar> 
449343
(
106503
106638
106863
107083
107179
106936
106159
104773
102832
100545
98204.2
96084.3
94378.2
93196.6
92594.8
106496
106632
106858
107080
107178
106936
106160
104777
102839
100555
98215
96094.5
94386.7
93203.4
92600.6
106500
106637
106867
107092
107193
106953
106181
104802
102870
100592
98255.1
96133.3
94421.9
93235
92630.1
106513
106653
106887
107117
107221
106985
106218
104845
102922
100652
98320.8
96197.4
94480.3
93287.8
92679.7
106533
106676
106915
107151
107259
107027
106266
104903
102991
100731
98406.3
96280.4
94555.7
93355.8
92743.5
106554
106700
106945
107188
107302
107076
106323
104970
103071
100822
98501.8
96372.3
94638.5
93430.2
92813.2
106573
106722
106972
107222
107341
107124
106381
105037
103149
100910
98590.7
96458.9
94716.4
93500.3
92879
106587
106738
106991
107247
107371
107163
106426
105090
103210
100977
98658.6
96523.6
94775.7
93555
92931.2
106591
106743
106999
107258
107387
107186
106457
105127
103249
101013
98692.1
96555.8
94807.5
93586.6
92962.6
106587
106738
106994
107254
107387
107189
106464
105135
103253
101010
98687.9
96551.5
94808.3
93592.1
92970.5
106573
106724
106978
107237
107370
107174
106448
105115
103226
100976
98651.1
96517.9
94782.5
93572.7
92954.8
106553
106702
106954
107210
107342
107147
106418
105079
103181
100925
98595.7
96466.7
94740.3
93538.9
92925.5
106530
106677
106926
107179
107309
107112
106378
105034
103129
100866
98534.4
96410
94691.9
93498
92888.9
106507
106653
106899
107149
107276
107077
106340
104991
103079
100812
98479.5
96359.1
94647.2
93458.9
92852.8
106485
106630
106875
107123
107249
107048
106309
104957
103042
100773
98440.1
96321.9
94613.2
93427.8
92823.4
106341
106523
106847
107218
107492
107468
106823
105374
103179
100553
97913.6
95595.5
93780.3
92546.3
91924.3
106334
106517
106843
107216
107492
107470
106826
105379
103188
100566
97927.6
95608
93790.1
92553.9
91930.8
106338
106524
106854
107232
107511
107490
106848
105407
103225
100611
97975.9
95652.4
93828.6
92587.6
91961.9
106352
106541
106876
107261
107546
107525
106887
105451
103282
100683
98056
95726.9
93893.1
92644.1
92014.3
106373
106565
106908
107301
107592
107567
106939
105512
103347
100779
98163.9
95825.9
93977.7
92717.8
92082.3
106395
106592
106943
107346
107645
107625
107002
105591
103449
100894
98287.2
95938.5
94072.8
92799.5
92157.5
106416
106616
106975
107386
107690
107687
107072
105672
103549
101009
98414.3
96048.4
94163.2
92877.6
92229.2
106429
106632
106995
107415
107726
107733
107126
105694
103621
101091
98499.1
96126.1
94231.1
92938.8
92286.4
106434
106637
107003
107425
107743
107759
107165
105787
103676
101136
98537.8
96162.7
94267.4
92973.4
92320.5
106428
106631
106994
107417
107742
107756
107169
105794
103675
101120
98507.8
96146.2
94263.6
92977.3
92328
106413
106614
106973
107392
107715
107733
107149
105764
103630
101071
98450
96097
94230.4
92955.3
92311.4
106392
106590
106945
107359
107679
107706
107113
105718
103581
100996
98368.2
96027.6
94178.3
92915.8
92278.2
106369
106564
106914
107322
107639
107665
107068
105667
103514
100917
98285
95955.3
94120.6
92869.3
92237.5
106345
106538
106885
107288
107600
107624
107023
105614
103452
100847
98214.9
95893.5
94069.2
92825.9
92198.2
106322
106515
106860
107260
107570
107592
106988
105575
103408
100800
98168.6
95851.2
94031.9
92792.6
92167.1
105929
106218
106766
107495
108231
108764
108522
106908
104037
100519
97148.5
94381.5
92330.8
90986.5
90323
105922
106212
106764
107496
108236
108770
108526
106914
104050
100540
97169.5
94398.6
92343.3
90995.9
90330.9
105927
106220
106778
107519
108267
108802
108550
106950
104097
100606
97237.3
94455.1
92388.6
91034
90365.4
105941
106240
106808
107561
108320
108852
108591
107021
104157
100710
97357.3
94554
92466
91098.5
90424
105963
106268
106849
107618
108385
108888
108599
107028
104199
100869
97520.6
94689.1
92571.4
91184.4
90501.2
105988
106300
106897
107682
108469
108959
108670
107144
104358
101058
97728.6
94851.4
92693.1
91282.5
90588.2
106009
106328
106935
107742
108525
109049
108768
107267
104517
101226
97997.2
95017.6
92815.8
91378.6
90673
106024
106347
106960
107779
108577
109127
108881
107304
104639
101344
98113.3
95124.6
92905.1
91455
90741.8
106028
106350
106966
107787
108590
109149
108905
107446
104721
101409
98172.6
95174.6
92950.2
91496.8
90782.7
106021
106341
106953
107764
108589
109129
108907
107445
104708
101384
98051.4
95135.3
92938.1
91499.9
90791.3
106004
106319
106921
107723
108534
109103
108884
107384
104620
101282
97915.1
95045.2
92887.1
91469.6
90770.4
105982
106291
106883
107672
108477
109074
108875
107369
104554
101127
97763.8
94931.7
92811.2
91417.6
90729.1
105956
106262
106844
107621
108414
109014
108825
107281
104462
100989
97618.7
94820.2
92732.1
91358.6
90679.4
105931
106234
106810
107577
108361
108955
108765
107201
104368
100877
97510.6
94733.3
92665.5
91305.6
90633
105908
106209
106782
107545
108324
108915
108722
107150
104309
100811
97447.6
94679.2
92620.7
91267.2
90598
105140
105584
106470
107774
109363
110945
111857
109929
105570
100186
95576.8
92188.6
89863.6
88412.1
87716.9
105132
105578
106469
107779
109375
110959
111857
109939
105581
100213
95603.8
92208.5
89877.4
88422.2
87725.5
105136
105587
106488
107813
109424
111009
111895
110002
105672
100323
95696.2
92275.4
89927.6
88463.7
87762.9
105149
105608
106526
107879
109510
111128
111792
110090
105671
100541
95887
92400.2
90017
88535.9
87827.5
105170
105638
106579
107958
109622
111138
111156
109942
106598
100889
96162.2
92590.3
90144.2
88634.7
87914.5
105195
105676
106650
108091
109791
110454
111134
110052
106842
102317
96545
92832.3
90303.5
88751.1
88015.5
105216
105709
106704
108175
109188
110580
111240
110197
107040
102583
98010.2
93072.9
90464.7
88871
88117.2
105231
105731
106740
108223
109238
110687
111392
110276
107243
102808
98197
93225.8
90598.4
88973.5
88201.9
105234
105730
106736
108229
109263
110723
111446
110467
107382
102941
98339.1
93311.8
90650.4
89024.4
88255.5
105227
105718
106713
108191
109947
110686
111457
110502
107394
102945
97105.2
93261.5
90641.7
89031.6
88268.5
105210
105691
106658
108083
109815
111437
111520
110461
107293
101538
96768.3
93097.4
90563.6
88993.6
88243.5
105187
105660
106607
108007
109703
111401
112192
110610
106283
101155
96459.4
92904.6
90455.1
88925.3
88191.8
105162
105628
106558
107930
109603
111273
112252
110433
106145
100829
96190.4
92734.7
90346.3
88849.2
88130.2
105137
105598
106518
107872
109524
111180
112153
110296
105979
100627
96019.7
92612.2
90259.2
88783.1
88074.2
105115
105573
106488
107834
109478
111127
112105
110226
105898
100534
95932.7
92542.3
90204.3
88738.1
88034
103778
104391
105665
107694
110541
114106
117932
115276
107900
98802
92487.5
88607.5
86181.4
84755.4
84101.3
103767
104382
105662
107701
110561
114135
117937
115282
107912
98829.7
92511.7
88622.2
86190.2
84762.1
84107.8
103765
104386
105679
107741
110637
114231
118001
115345
108053
98960.9
92610.2
88682.9
86236
84801.7
84144.3
103772
104403
105720
107848
110859
114495
115788
115534
109777
99550.6
92916.5
88824.9
86325.2
84875.9
84210.8
103783
104425
105778
107963
111025
113083
115885
115629
110055
102064
93314.1
89029.9
86459.2
84977.8
84301.9
103803
104466
105879
108239
110259
113381
116075
115737
110302
102649
95832
89388.9
86628.1
85111.4
84413.5
103815
104485
105917
107683
110383
113613
115307
115305
110976
104007
96398
91493.2
86789.5
85237.8
84526.9
103830
104510
106008
107727
110495
113763
115506
115565
111382
104451
96844
91801.3
87070.2
85357.4
84635.6
103830
104504
105947
107733
110522
113825
115608
115787
111642
104738
97063.2
91957.8
87051.9
85440.7
84702.3
103831
104506
105946
108354
110431
113728
115678
115846
111687
103851
96845.7
90046.4
87106.4
85477
84729.5
103819
104475
105861
108102
111257
113502
116459
116417
111165
103453
94293.4
89779.9
87024.6
85431.3
84703.9
103803
104449
105801
107988
111087
114855
116292
116274
110820
100502
93743.5
89506.6
86882.3
85349.3
84643.3
103783
104420
105748
107866
110840
114536
118443
115952
108666
99622
93249.3
89259
86743.2
85256
84570.1
103762
104393
105707
107798
110727
114389
118296
115724
108385
99319.2
93009.3
89102.8
86636.4
85177.1
84504.6
103741
104370
105677
107757
110672
114318
118233
115616
108273
99187.5
92896
89018.4
86572.5
85125.6
84459.3
101597
102329
103912
106630
110968
117815
123397
128745
115195
94060.7
86676.6
83102.6
81037.4
79949.6
79490.5
101581
102315
103903
106633
110994
117850
123410
128742
115143
94007.9
86660.1
83091
81034.4
79951.6
79494.1
101565
102304
103901
106646
111046
117949
123467
128789
115145
94014.3
86670.8
83089.8
81053.4
79977.7
79524.1
101561
102306
103929
106744
111485
115893
123654
129001
115243
98694.2
86903.3
83105.1
81114.3
80047.4
79586.6
101543
102295
103936
106867
110345
116258
124104
126781
116861
99650.4
90455.6
83212.3
81165.3
80124
79669.1
101547
102298
104032
106516
110549
115471
122513
126005
117292
102452
91082.5
85963.8
81304.3
80232.1
79780.8
101536
102283
104057
106611
110784
115625
121810
126367
118411
104114
93342.7
86425.7
81463.4
80354.3
79895
101537
102272
104095
106717
110200
115244
122059
126815
119199
105018
93991.4
86863.4
83673.7
80440.6
80022.6
101549
102300
104090
106708
110236
115813
122237
127222
119925
105759
94489.3
87102.7
81874.2
80624.9
80118.4
101566
102329
104091
106614
110875
115864
122254
127367
120137
106017
94618.4
87166.6
81967.1
80696.3
80165.3
101568
102334
104009
107001
110594
116769
122999
128106
119161
104362
92398.2
84318.4
81910.9
80681.4
80146.7
101572
102337
103998
106879
111725
116326
124357
130019
116692
100412
88065.7
84000.2
81798.9
80601.8
80082.1
101565
102321
103956
106761
111252
118286
124006
129499
116020
94811.1
87451.4
83781.4
81645.6
80495.1
80000
101554
102305
103930
106717
111162
118135
123813
129240
115661
94528.6
87227
83632.1
81530.3
80407.8
79927.3
101538
102287
103907
106682
111102
118059
123737
129133
115540
94408.2
87109.5
83546.5
81462.5
80352.1
79878.2
98382.4
99084.5
100655
103528
108438
115211
131551
161325
119375
86456.5
76192.1
74940.6
74269.6
74079.8
74040.2
98357.5
99060.5
100634
103508
108434
115214
131558
161343
118975
86180
76063.8
74874.2
74246.5
74072.8
74038.4
98323.2
99021.3
100589
103444
108348
115242
131556
161398
118801
86050.7
75943.1
74807.9
74234.9
74083.8
74059.3
98285.5
98980
100541
103261
107807
115684
131672
161402
118589
86170
79431.3
74574.3
74240.9
74122.1
74109.8
98228.2
98903.2
100384
103403
107889
114898
128879
161443
119714
90357
79399.3
76998.6
74160.9
74175.5
74182.9
98177.4
98782.9
100895
103491
107710
114970
127640
156739
125163
93072.2
82226.7
77259
76168
74241.4
74288.1
98147.2
98750.6
100912
103527
107795
114648
127719
157069
126539
94506.4
84407.3
79376.9
76402.7
74423
74433.9
98123.6
98728.3
100985
103577
107845
114712
127871
157634
129000
96759.9
85615.2
80033
76774.6
74619.8
74551.6
98153.9
98760.3
100948
103615
107904
114785
128031
158234
131929
98934.9
86657.5
80550.1
76968.8
74728
74680
98178.6
98790.8
100948
103552
107908
114842
128142
158477
132723
99429.6
86911.8
80677.9
77083.4
74773.7
74723.1
98229.4
98920.1
100428
103500
108090
115279
128194
158169
130037
97648.8
84972.9
78660.8
75047.5
74809.5
74713.2
98272.5
98984.5
100583
103360
107902
115962
129408
162468
121169
93072.3
81213.3
75619.4
75018.1
74736.4
74648.4
98290.6
99006.1
100610
103523
108512
115565
132082
162141
119575
87139.1
76762.4
75561.8
74873.6
74631.7
74560.9
98296
99015.7
100624
103557
108569
115502
132001
161987
119135
86595.9
76636.9
75436.9
74761.5
74543.4
74484
98287.7
99007.3
100615
103545
108542
115435
131957
161905
119269
86529.1
76572.2
75374.3
74696.3
74486.5
74432.8
94080.5
94496.1
95424.6
97141.8
99991.9
106607
113837
110997
35258.3
56655.7
61210.3
64344.1
66345.8
67617.2
68202.7
94047.3
94461.2
95387.4
97097.8
99962.2
106575
113834
110985
28236.5
55816.6
60950.2
64231.6
66308.6
67603.2
68196.9
93994.2
94397.3
95315.6
97032.9
99861.7
106506
113812
111090
27286.3
55502.1
60806.7
64210.2
66308.1
67615.3
68217
93926.3
94300.5
95192.8
96757
101200
106143
113651
111137
26885.9
55490.8
62288
64347.3
66366.4
67664.8
68275.3
93829.8
94174.7
94989
97941.9
100979
106633
114533
111125
27020.9
59082.9
64073.6
65877.6
66590.6
67791.4
68373.2
93722.9
94049.8
96153.2
97850.9
101505
106930
114416
110927
28043.5
60308
65697.1
66383.3
68012.9
68034.6
68519.1
93683
94004.3
96138.3
97790.6
101795
106910
114369
110777
33871.3
62707.5
67100.4
68024.9
68309.9
68270.5
68705.5
93661
93971.7
96108.3
98458.5
101812
106919
114363
110595
50576.3
67387.1
68962.9
69441.1
68720.8
68510.1
68850.8
93680.3
94001.7
96111.4
98458.5
101832
106950
114391
110459
73768.6
72039.6
70523.5
70122
68925.9
68584.5
68952.5
93698.7
94036.1
96150.7
97823.9
101846
107007
114482
110599
81367.3
73146.8
70821.9
69524.4
68996.3
68558.8
68957
93797.8
94150.9
94986.3
97925.5
101606
107086
114643
111031
59090.2
69301.3
69618.4
67776.3
67465
68434
68912.6
93872.9
94261.9
95188.6
96790.2
101221
106058
113743
111553
29954.8
60835.9
64239.5
65459.9
67169.4
68285.3
68815.7
93915.4
94332.3
95280.8
97052
99943.7
106518
114073
111701
25659.5
56382.9
61673.6
64964.7
66936.9
68152.2
68708.1
93936
94364.7
95322
97081.8
100015
106751
114198
111756
25132.3
55824.7
61455.4
64753.5
66793.9
68050.6
68621.8
93934
94364.7
95325.6
97095
100017
106775
114209
111725
27703.7
56009.7
61471.7
64701.6
66724.9
67991.4
68568.1
88969.5
88856.8
88606.5
88223.7
88108.7
92056.5
95682.7
108763
14954
34598.6
47283.7
54319.7
58897.6
61596.6
62813.6
88933
88817.8
88566
88180.8
88082.7
92013.5
95651.3
108586
2819.65
33889.1
46996.6
54204.4
58859
61579.9
62806.5
88876.7
88754.5
88501
88158.8
88040.4
91927.5
95585.5
108549
4745.5
33810.4
47000.2
54241.9
58889.2
61610.5
62834.5
88808.5
88659
88401.4
88199.8
90841.6
91899.2
95418
108461
2772
33847.3
47176.5
54541.1
59015.3
61707.1
62915.9
88724.3
88558.9
88358.9
90233.9
90878.4
93777.8
96546.6
108479
3076.78
33912.6
48021.6
55452.2
59332.9
61916.3
63060.6
88636.5
88541
89952.7
90157.2
92138.2
94606.4
96470.6
108134
3123.2
34796.4
48944.3
55877.6
60258.2
62206.6
63271.2
88609.8
88528
89848
90139.9
92799.9
94553.9
96429.3
108042
2434.21
36471.1
50149.1
56886.7
60623.3
62457.1
63468
88585.2
88497.6
89800.7
91125.1
92773.7
94535.3
96412.2
107973
6858.63
39988.3
51823.3
57891.1
61008.7
62697.8
63618.1
88588.1
88506.8
89794.1
91114
92774.7
94535
96405.9
108062
7206.51
43354.3
53142.1
58464.8
61243.3
62779.4
63708.5
88589.8
88500.8
89831.7
90152.9
92797.6
94568.5
96440.4
108157
2229.78
42751
53187.3
58284.7
61268.9
62736.8
63686.4
88651.6
88490.9
88315.7
90129.9
92186
94667.9
96540.6
108300
16447.6
40834.7
52065.3
57194
60199.2
62527.2
63573.2
88703.9
88562.8
88323.6
88159.2
90900.6
92106.6
95745.2
108749
3486.52
36448.4
49162.3
55529.3
59759.5
62282
63417
88738.6
88625.4
88390.6
88076.4
88005.6
91968.2
95663.2
108738
4679.7
34763.7
47732.5
54890.2
59447.7
62092.5
63277.7
88756.6
88651.9
88423.4
88076.7
88022.6
92030.1
95785.4
108837
6049.93
34245.7
47430.1
54635.8
59274.6
61968.9
63178.9
88755.1
88653.3
88426.3
88082.6
88014
92078.1
95834.4
108879
2303.96
34085.5
47444.8
54554.3
59196.9
61907
63122.9
83757.8
83057.5
81600.7
79267.9
78843.6
77523.4
79914.4
2291.04
25563.3
39629.1
48034.9
53826.1
57301.3
58914.9
83721.6
83018.7
81560
79228.7
78795.4
77476.5
79874.1
2293.69
25369.8
39501.8
47987.2
53796.6
57283.2
58903.8
83673.1
82970.5
81503.1
79181.6
78786.1
77443.1
79799.7
2303.98
25379.6
39636.1
48041
53829.9
57312.9
58925.5
83628.1
82920.5
81436.8
79295.7
79046.4
77364
79644.9
2293.9
25271.7
38460.9
48283.8
53927.4
57402.8
58994.5
83594.1
82890.6
81544.4
81414.6
79599.9
79499.1
80376.9
2297.16
23151
38099.3
47971.2
54169.6
57587.4
59126.4
83566.1
82992.3
83003.4
81660.9
80973
80520.1
80396.7
2290.5
23469
38217.5
48274
54202.1
57756.2
59310.3
83557.6
82998.2
82970.5
81743.6
81786.7
80612.9
80501
2290.79
24332.7
39039.4
48546.9
54546.2
57924.8
59462.4
83530.2
82977
82943
82611.8
81887.2
80650.9
80572.4
2293.43
26637.3
40240.5
49085.3
54823.8
58117.6
59592.1
83518.4
82958
82919.8
82604.8
81864.4
80605.2
80491.1
2299.08
28545
41022.2
49496.2
55014.2
58197
59682.6
83492.4
82926.2
82917.3
81691.8
81734.2
80527.1
80379.8
2496.74
27269.2
40827.5
49521.6
55070.6
58206.7
59680.9
83476.4
82772.2
81445
81331
80860.7
80448.3
80333
2284.62
25785.6
40131.9
49251.7
54854.4
58105.8
59569.2
83465
82762
81283.2
79174
79018.9
77463.3
79400.2
2291
25144.7
39807.6
49023.2
54527.3
57883.5
59420.1
83464.7
82766.6
81310.7
79007
78655.9
77337.2
79705.6
2295.58
25893.9
40162.1
48547.1
54284.8
57709.6
59293.4
83466.8
82768.8
81323.4
79024.6
78652.1
77370.8
79818.8
2296.06
25898.1
39906.3
48361.6
54142.5
57598.5
59205.9
83460.1
82764.4
81319.3
79016
78609.9
77384.4
79872.4
2290.59
25700.4
39847.9
48257
54071.1
57541.9
59155.7
79369.5
78125.6
75512.6
70934.5
68468.3
60489.6
55881.9
2571.33
2289.83
23949.1
37515.1
46054.7
52006.6
55585.7
57295.7
79327.7
78078.2
75453.3
70857.2
68392.2
60404.9
55818.7
2660.7
2289.95
23501.9
37415.3
46001.3
51961.6
55554.3
57269.7
79272.2
78020.4
75365.4
70716.9
68290.2
60262.2
55724
2641.14
2297.53
21227.3
37540.8
46045.3
51953.3
55545.2
57255.5
79223.9
77974.5
75239.3
70614.6
68169.2
60066.6
55635.1
2295.6
2295.68
20951.6
34705
46021.4
51928.7
55559.5
57259.9
79201.6
77939.1
75161.5
73609.9
67885
63024.4
57546.3
2295.25
2294.75
18737
33329.2
44300.8
51967.5
55637.2
57306.1
79191.4
77934.7
77110.4
73466.5
69906.2
64441
57727.9
2301.65
2302.41
18345.9
32694.5
44350.8
50972.8
55695.2
57401
79169.7
77909.1
77076.3
73347.2
70808.5
64613.6
58192.4
3126.45
2318.03
18543.6
33152
43813
51164.3
55773.4
57479.9
79133.7
77883.5
77031.4
74730.5
70808
64730
58743.8
5989.79
2597.07
22385.5
34196.1
43883.5
51368.9
55891.9
57570.2
79115
77854.9
77008.2
74718.5
70755.7
64578.5
58194
2509.77
2269.32
20098.5
34428.7
44151.5
51524.8
55977.2
57655.2
79087.6
77830.8
77021.7
73287.1
70714.7
64378.2
57751.1
2305.46
2256.24
18992.5
34159.3
44525.3
51606.1
56039.1
57697
79037.4
77772.7
74995.6
73458.7
69790.3
64269.9
57542.1
2286.23
2300.99
20015.1
34024
45176.1
52487.6
56041.4
57658.2
78998.3
77750.9
75015.8
70407.1
67896.7
59904.4
55519.6
2287.62
2291.39
20552.3
35527.3
46570.7
52380.2
55925
57591.4
78986.1
77732.3
75079
70433
67967
59996.2
55526.6
2265.75
2297.23
21561.9
37828
46399.9
52287
55838.7
57532.5
78983.3
77730.2
75100.1
70508.4
68074.3
60130.4
55619
2321.34
2296.79
24728
37628.6
46327.7
52218
55784
57490.6
78975
77725.7
75104.2
70523.8
68101.2
60214.1
55726.3
2412.36
2295.23
24881.2
37620
46260.7
52175
55750.3
57460.9
76643.7
74991.6
71476.7
65242
54489.9
44225.4
18651
2301.75
2300.11
26937.1
39726
47784.1
53311
56611.6
58189.7
76585.9
74922.8
71374.2
65096
54258.1
43980.6
18712.3
2262.92
2300.72
26318
39504.4
47641
53215.2
56548.9
58137.8
76502.8
74829.5
71235.5
64918.9
53936.3
43487.6
18515.1
2257.91
2303.74
21805.7
39263.8
47567.6
53115.8
56470.7
58067.8
76416.4
74748.8
71060.9
64720.1
58348.3
43043.6
18512.7
2273.95
2297.82
21456.3
34942.9
47267.7
52921.9
56358.3
57983.1
76356.3
74688.7
70983.7
67268.7
58245.5
46916.6
25032.6
2288.27
2305.5
17631.8
32642.8
44231.1
52748.8
56290.1
57919.9
76320.2
74633.7
72610.7
67204.4
60502.2
48912.3
25925.4
2292.4
2286.21
15928.3
31137.5
43984.2
50795.6
56250.9
57910.4
76271.1
74573.1
72615.4
67124.1
61530.9
49266.8
26991.7
2299.55
2260.14
15126.6
31063.8
42674.7
50792.6
56248.4
57918.9
76224.6
74533.9
72581
68499.2
61491.8
49435.8
27936.7
12055.7
8615.15
19637.6
31965.4
42312.4
50908.9
56312.5
57972.4
76201.5
74504.5
72552.7
68469.8
61421.1
49168.1
26570.7
2374.7
2252.32
18375.1
32307.8
42563.1
51067.7
56407.7
58052.1
76190.5
74498.8
72547.1
67041.2
61387.3
48872.7
25981.3
2284.56
2274.01
17298.1
32290.5
43347.7
51220.2
56516.5
58136.6
76146.4
74477
70766.9
67157.1
60332.7
48696.6
25707.2
2284.19
2347.21
18709.5
32551.5
44799.9
53151.7
56599.1
58182.8
76127.8
74455.9
70753.6
64406.5
58078.1
42905.6
20042
2273.58
2287.68
19920.3
35416.8
47634.1
53229.8
56615.5
58218.1
76135.5
74449.3
70836.7
64493.9
53516.3
43035.8
18321.7
2244.88
2302.14
21821.7
39302.1
47733
53295.7
56652.6
58249.9
76144.7
74463.6
70880.2
64559.3
53702.7
43378.2
18375.8
2243.41
2301.42
26763.3
39418.4
47786.1
53327.9
56673.3
58265.2
76143.1
74468.3
70908.1
64610.1
53815.9
43630.7
18503.4
2258.8
2302.96
27153.6
39518.7
47816.9
53345.9
56677.7
58265.3
76223.5
74539.7
70933
64660.6
53813.7
41720.3
6775.09
2299.44
5562.56
34798.1
45823.4
52796.5
57394.6
60059.3
61328.9
76144.2
74442.2
70773.8
64373.4
53447.9
40582.8
5764.29
2246.01
3795.33
34326.3
45457.8
52544.6
57237.7
59955.2
61244.4
76028.5
74307
70561.8
64064.8
53439.5
39189.3
7521.49
2257.49
2340.51
26456.5
45149.3
52330
57024.5
59805.6
61117.3
75904.4
74183.1
70370.6
63849.7
55405.3
38232
9221.35
2278.12
2407.13
26048.3
39595.7
51837.3
56661.7
59580.4
60953.1
75811.7
74104.5
70335.5
65203.2
55018.7
40682.9
18058.3
2282.98
2292.96
20224.1
36175.5
47878.3
56366.4
59396.7
60800.9
75753.1
74058
71112.5
65039.9
56441.1
41914.2
18291
2282.26
2280.8
17540.5
33773.5
47291.9
53684.8
59293.8
60712.5
75683.2
73979.3
71073.5
64946.2
57101.1
42134.6
20691.1
4243.79
2792.24
15624.1
33045.7
45234.6
53490
59223
60663.3
75631.7
73929.3
71042.7
65856.1
57016.2
42190.2
20119.7
2294.21
2275.73
16750.6
33364.1
44439.3
53531.6
59250.2
60689
75602.8
73900.6
71021.6
65832.3
56987.9
42148.7
20775.4
4717.51
2282.14
18829
34074
44732
53702.1
59351.3
60766.2
75602.4
73903.2
71000.7
64904.5
57030.5
41972.3
18673.1
2314.18
2295.69
19711.3
34682.4
45980.9
53950.2
59498.5
60882.2
75563.2
73852.4
70073.2
65014.2
56325.6
41869.1
18237.1
2284.96
2297.65
20930.1
35308.7
48166.6
56663.3
59622.9
60985.2
75559.2
73823.8
69979.3
63433.7
54899.7
38283.8
17437.9
2269.89
2292.05
22809.2
39516.8
52033.7
56842.6
59732.6
61092.4
75585.2
73835.3
70037.1
63455.3
52763.7
38173.5
7839.29
2270.43
2306.79
25904.2
44869.8
52287.8
57036.2
59861.9
61192.7
75610
73868.5
70116.8
63596.5
52529.5
39836.3
5710.43
2244.43
6087.88
33822.9
45117.3
52447.5
57162.6
59946.5
61258.2
75619.1
73885.6
70172.1
63710
52693.1
40385.1
5487.72
2237.79
4700.45
33822.8
45213.1
52542.5
57226.8
59984.9
61286
78306.9
77082.8
74504.5
70374.7
61678.2
52660.8
18229.4
2332.74
36397.7
53054.9
56816.2
61159.9
63879.6
65453.1
66232.5
78206.3
76950
74271.2
69838.7
60482.4
50387.7
2476.95
2327.14
34252.4
52174.8
56209.5
60812.9
63665.9
65314.3
66122.8
78061
76772.2
73992.7
69244
62050.8
47118.3
15163.5
2427.93
16901.9
40559.4
55964.2
60371.8
63341.6
65107.1
65953.3
77903.7
76581.7
73672.8
68773.6
60617.3
45088.3
15592.4
2304.7
7230.84
37484.5
49231.5
59729.2
62879.2
64827.3
65739.7
77782.5
76446.9
73547.9
68390.2
59527.4
44850
20601
2285.4
2302.33
28560.8
44817
55109.7
62510.9
64572.3
65538.8
77702.3
76388
73237.5
67929.7
59370.1
44600.2
19885.9
2299.97
2292.35
25318.2
41571.8
54323.9
59341.5
64449.9
65408.5
77614.8
76288.9
73076.6
67718.7
59266.9
44068.8
19198.6
2267.85
2291.98
23036.9
40334.9
51752.7
59073.8
64347.1
65324
77560.4
76231.4
73019.3
67858.2
59047.9
43804.1
18800.9
2294.01
2553.38
22636.9
40177.5
50605.2
59062.2
64354.2
65330.2
77528.6
76202.7
73005.7
67843.7
59073
44060
20424.2
2338
2270.29
24583.4
40926
50909.3
59226.1
64450.2
65401.8
77535.7
76215.9
73013.9
67727.9
59298.8
44583.9
21434.4
2360.51
2299.77
26618
41971.6
52522.4
59522.5
64604.7
65531.1
77509.9
76166.6
73245.3
67942.5
59366.4
45018
22061
2309.81
2328.93
28107.9
43013.4
55246.6
62722
64720.8
65651.9
77520.7
76174.2
73213.3
68255.9
59575.6
44352
19881.1
2295.65
2304.56
31385.6
48571.2
59742.8
62921.5
64877.9
65794.1
77562.7
76228.2
73350.4
68421.3
60957.7
45180.3
14775.5
2357.89
15931.6
37643
55303.9
60115.7
63219.6
65062.6
65934.7
77602
76281.1
73457.9
68775
59099
48570.2
2330.24
2324.79
31994.2
50572.7
55568.3
60447.2
63433.5
65191.4
66034.9
77620.9
76312.1
73536.3
68982.1
59436
49680.2
2632.56
2347.39
30934.4
51180.5
55687.7
60608.8
63536.1
65253.4
66081.2
82365
81956.5
81197.8
81311.3
80463.1
90370.8
128997
126542
95340.1
78840.3
72474.9
72207.7
71982.4
72099.5
72251.7
82251
81793.1
80920.9
80656
79110.4
88788.6
128578
107831
90234.8
77215.8
71643.9
71758
71729.9
71944.6
72131.2
82084.2
81565.8
80567.2
79142.1
78395.4
71789.9
73366.5
62081.5
56513.9
65008.8
70607.5
70868.2
71322.4
71705.7
71941.3
81898.8
81310.3
80073.4
78299.5
72783.1
65327.9
45749.9
15353.6
28296
60480.4
64530.4
69974.4
70779
71399.2
71706.4
81754.8
81120.8
79828.6
75932.8
71359.7
60869.2
36839.8
11276
17767.1
47546.1
59375.7
65707.5
70345.4
71117.9
71487.8
81662.1
81032.3
78348.3
75381.9
69336.6
58272.4
33831.8
2246.78
2303.6
41305.9
55345.1
64854.2
67302.1
70944
71353
81565.9
80925.1
78100.1
75154
68383
56903.9
31082.7
2260.2
2228.29
37622.7
53710.9
62009.2
67013.3
70831.9
71255.9
81512.5
80869.7
78021
74313.7
68030.9
56124.3
28617.2
2290.69
2306.72
37876.6
53373.1
60674.3
67030.8
70829.2
71250
81479
80836.1
78005.4
74291
68004.2
56180
29850.6
2281.32
3214.83
39926.3
54151.1
60960.6
67169.9
70904.6
71308.2
81491.9
80851.9
78039.8
75123.7
68300.2
56990.8
32571.5
2335.52
11743.6
42841
55467.2
62739.5
67399.9
71047.7
71433.2
81480.5
80835.2
79502.7
75285.9
69248
58295.1
33929.9
2225.01
15643.4
45474.8
56836.2
65675.3
70468.9
71198.7
71543
81511.8
80893.1
79588.5
77721.3
71313.2
63259.3
37377.9
2267.74
13414.3
51127.1
63336.5
69868.3
70741.1
71384
71701
81574
80997.1
79863
78151.2
76898.4
66129
52020.1
40435.1
44318.6
60619.4
69767.8
70484.2
71113
71593.9
71860.1
81628.4
81086.2
80018.5
79323.9
76786.2
85035.8
113216
94504.7
85390.3
75320.1
70768.6
71236.3
71428.1
71759.2
71982.5
81652.7
81130.9
80110.9
79634.8
77185.2
86705.3
113123
112485
95642.3
77900.7
71467.6
71631.6
71592.8
71843.2
72041.5
87231.8
87622
88361
91553.2
95922
102260
125525
124830
112095
95117.5
86480.9
82656.9
80026.8
78943.4
78521.7
87136.8
87486.3
88213.1
91317.2
95816.8
103121
133000
137402
113476
94882.4
85986.9
82313.4
79820.4
78805.3
78411.8
86984.5
87236
87978.4
89729
94567.1
98750.4
124452
155414
121795
93964.9
84839.7
81356.4
79455.1
78569.8
78231.3
86804.9
86976.7
87448.5
88748.6
88806.4
95594
116790
159988
119270
90949.6
82084.5
80289.4
78918.1
78272.9
78004.9
86662.6
86780.1
87077.4
85789.5
86941.8
87636
91929.2
131000
96536.9
81776.1
78275.9
77558.1
78437.4
77991.1
77787.2
86578.9
86596.7
85130.8
85222.2
84218.3
83432.2
83224.7
54453.7
62161
74616.5
74749.3
76734.1
76258.2
77746.2
77645.4
86487.3
86481.9
84987
84956.3
82697.2
82197
78781.9
48041
42609.8
69719.4
73022.7
74694.3
76037.6
77616
77545.1
86442.3
86438.8
84923.5
83646.5
82460.4
81646.9
75494.8
5349.93
35091.4
68264.7
72494.8
73603
75977.4
77601.8
77533
86408
86402.5
84906.1
83601.4
82339.6
81210.4
74452
31160.7
51013.1
70825.6
73170
73837.3
76083.9
77656.1
77572.8
86420.6
86429.5
84918.8
84859.4
82431.9
81364.1
73430.3
19161.3
63555.5
74195.5
74457.9
75227.8
76299.3
77798.2
77686.8
86418.5
86531.1
86795.2
85238.8
84021.6
83042.1
82236.1
55064.4
72534.7
77602
75934.1
77276.3
78488.9
78021.4
77802.7
86461.1
86611.9
87040.5
88272.9
87520.9
92518.9
100210
138487
93417.6
84273.7
80775.6
80151.7
78851.1
78226
77966.9
86526.3
86727.7
87364.9
88896.5
93298.2
96377.3
121293
157316
118117
91349.5
84138.8
81002.8
79248.1
78440.5
78126.1
86576.5
86852.6
87421.5
90224.4
93779
101624
130881
130454
111939
93175.6
85216.1
81841.9
79549.5
78616.7
78251.4
86586.5
86877
87406.3
90232.6
93086.9
100225
120402
109339
112890
92786.5
85827.4
82219.3
79704.2
78703.2
78310.4
91573.9
92303.4
93344.8
96137.5
99997.6
99588.4
103391
107813
105368
97545.8
93091.1
89294.2
86275.3
84828.9
84125.4
91549.1
92277
93447.1
96515.6
100938
101545
107240
112297
106621
98612.5
93355.6
89311.1
86224.4
84756.7
84056.5
91492.2
92142.8
93619.9
96286.2
100896
104106
110250
122376
110160
101259
93224.7
88990.8
86112.7
84606.8
83936.2
91395.4
92015.2
93418.1
96357.7
98340.6
106426
119303
134224
120886
102568
93258
88542.4
85819.1
84398.3
83770.1
91297.4
91884.3
93244
93998.9
98292.9
105136
121704
156107
130433
104482
92519.5
87346.3
85472.5
84162.3
83588.7
91216.3
91650.6
91718.5
93693.6
96442.2
103846
123634
171135
133596
103481
91568.6
86960.8
84320.2
83879.5
83446
91145.6
91560.5
91650.5
93649.4
95724
104599
126092
176775
133526
102115
90927.3
86217.1
84197.3
83765.8
83357.7
91116
91526.3
91620.9
92551.4
95885.2
105853
134162
161156
128354
100947
90687.4
85869.2
84118.6
83743.7
83347.2
91083.1
91500
91598.2
92496.5
95789.6
105339
130235
159144
129715
101696
90917
85945.6
84169
83784.8
83369.7
91087
91516.7
91580.9
93530.3
95547.2
104250
125964
180510
133726
103130
91413.2
86389.9
84318.3
83900.3
83461.3
91112.7
91709.2
93065.2
93700
96368.3
103980
124926
174881
133491
104104
91973.5
87225.6
85498.2
84171.4
83585.3
91139.3
91763.9
93191.6
96211.8
98245.5
107508
123727
160895
129857
103992
92911.9
88508.3
85783.2
84356.5
83728.4
91151.1
91790.1
93266.7
95989.5
100635
105622
115380
131166
113595
102120
93158.1
88861.6
85995.2
84508.7
83843.2
91136.6
91848.9
92997.7
96237.9
100428
102181
110640
115693
108885
98285.4
93335.3
89112.8
86072
84616.8
83923.2
91095.2
91797.8
92798.7
95849.8
99287.4
100274
108877
113481
109042
96368.9
93362.1
89093.7
86087.3
84655.1
83952.2
94705.5
95352.5
96063.5
97357.4
99915.1
99389.3
100106
105368
101103
97110.9
95313.3
92593.7
90384.5
89207.8
88524.3
94758.6
95431.6
96288.3
97910.7
100788
100629
101762
104137
101771
98273.2
95755
92844.7
90471.1
89215.3
88513.3
94838.7
95471.7
96728.7
98594.9
101564
103228
106812
111668
106854
100869
96297
93100.7
90621.5
89199.2
88491.8