/*--------------------------------*- C++ -*----------------------------------*\
| =========                 |                                                 |
| \\      /  F ield         | OpenFOAM: The Open Source CFD Toolbox           |
|  \\    /   O peration     | Version:  v2012                                 |
|   \\  /    A nd           | Website:  www.openfoam.com                      |
|    \\/     M anipulation  |                                                 |
\*---------------------------------------------------------------------------*/
FoamFile
{
    version     2.0;
    format      ascii;
    class       volScalarField;
    location    "0.037";
    object      p_rgh;
}
// * * * * * * * * * * * * * * * * * * * * * * * * * * * * * * * * * * * * * //

dimensions      [1 -1 -2 0 0 0 0];


internalField   nonuniform List<scalar> 
449343
(
106366
106501
106726
106945
107042
106799
106021
104636
102695
100408
98066.9
95947
94240.9
93059.3
92457.5
106378
106514
106741
106962
107060
106818
106042
104659
102721
100437
98097.3
95976.8
94269
93085.7
92482.9
106402
106539
106769
106994
107095
106855
106083
104704
102772
100494
98157
96035.2
94323.8
93136.9
92532
106435
106575
106809
107039
107143
106906
106140
104767
102844
100574
98242.3
96118.9
94401.8
93209.3
92601.3
106474
106617
106856
107092
107201
106968
106208
104844
102932
100672
98347.4
96221.6
94496.8
93296.9
92684.7
106515
106661
106906
107149
107262
107036
106284
104931
103032
100783
98462.6
96333.1
94599.3
93391
92774
106554
106703
106953
107203
107321
107104
106361
105017
103130
100890
98571.1
96439.3
94696.8
93480.7
92859.4
106587
106738
106991
107247
107371
107163
106426
105090
103210
100977
98658.6
96523.6
94775.7
93555
92931.2
106611
106763
107019
107278
107407
107205
106477
105147
103269
101032
98711.7
96575.4
94827.1
93606.2
92982.2
106626
106777
107033
107293
107426
107228
106503
105174
103292
101049
98727.1
96590.7
94847.6
93631.3
93009.7
106632
106782
107037
107296
107429
107233
106507
105173
103284
101035
98710
96576.8
94841.3
93631.6
93013.6
106632
106780
107032
107289
107420
107225
106496
105157
103260
101003
98674.1
96545.2
94818.7
93617.4
93004
106628
106776
107024
107277
107407
107210
106476
105133
103227
100964
98632.5
96508.1
94790
93596.1
92987
106625
106770
107017
107267
107394
107195
106457
105109
103197
100930
98597.2
96476.8
94764.9
93576.6
92970.5
106622
106767
107012
107261
107386
107185
106446
105094
103180
100910
98577.5
96459.2
94750.6
93565.1
92960.7
106204
106386
106710
107081
107354
107331
106686
105236
103042
100415
97776.2
95458.2
93642.9
92409
91787
106216
106399
106725
107099
107374
107352
106708
105261
103071
100448
97809.9
95490.2
93672.4
92436.2
91813
106240
106426
106756
107134
107413
107392
106750
105309
103127
100513
97877.8
95554.3
93730.5
92489.5
91863.8
106274
106462
106798
107183
107467
107447
106809
105372
103203
100604
97977.5
95648.4
93814.6
92565.6
91935.8
106314
106506
106849
107242
107534
107508
106880
105453
103289
100720
98105
95767.1
93918.9
92658.9
92023.5
106356
106553
106904
107307
107606
107586
106962
105552
103410
100854
98247.9
95899.3
94033.6
92760.2
92118.2
106396
106596
106955
107367
107671
107667
107052
105652
103529
100990
98394.7
96028.8
94143.6
92858
92209.6
106429
106632
106995
107415
107726
107733
107126
105694
103621
101091
98499.1
96126.1
94231.1
92938.8
92286.4
106453
106657
107022
107445
107762
107779
107185
105807
103696
101156
98557.4
96182.3
94287
92993
92340.1
106467
106670
107034
107456
107781
107795
107208
105833
103714
101159
98547
96185.4
94302.9
93016.5
92367.3
106472
106673
107032
107451
107774
107792
107208
105823
103689
101129
98508.9
96155.9
94289.3
93014.1
92370.3
106471
106669
107024
107437
107757
107784
107191
105796
103659
101075
98446.7
96106.1
94256.8
92994.2
92356.7
106467
106662
107012
107421
107737
107763
107167
105765
103612
101015
98383.1
96053.4
94218.7
92967.4
92335.6
106462
106656
107003
107406
107718
107742
107141
105732
103569
100964
98332.7
96011.2
94186.9
92943.6
92315.9
106460
106652
106997
107398
107707
107729
107126
105712
103546
100937
98305.9
95988.5
94169.3
92930
92304.4
105792
106080
106629
107357
108094
108627
108385
106770
103899
100382
97011.2
94244.2
92193.4
90849.2
90185.7
105804
106094
106646
107378
108118
108652
108409
106797
103933
100422
97051.7
94280.9
92225.6
90878.2
90213.2
105829
106122
106680
107421
108168
108704
108452
106852
103999
100507
97139.2
94357
92290.5
90935.9
90267.3
105863
106161
106729
107483
108241
108773
108512
106943
104078
100632
97278.8
94475.5
92387.5
91020
90345.5
105904
106209
106790
107559
108326
108829
108540
106969
104141
100810
97461.7
94630.2
92512.5
91125.5
90442.3
105948
106261
106857
107643
108430
108920
108631
107104
104319
101018
97689.3
94812.2
92653.9
91243.3
90549
105990
106308
106916
107722
108505
109030
108749
107248
104497
101207
97977.6
94998
92796.1
91359
90653.4
106024
106347
106960
107779
108577
109127
108881
107299
104639
101344
98113.3
95124.6
92905.1
91455
90741.8
106047
106370
106985
107807
108610
109168
108925
107465
104741
101429
98192.2
95194.2
92969.9
91516.4
90802.3
106060
106380
106992
107804
108628
109169
108947
107485
104748
101423
98090.6
95174.6
92977.4
91539.1
90830.6
106063
106378
106980
107781
108593
109162
108943
107442
104679
101341
97974
95104.1
92945.9
91528.5
90829.3
106060
106370
106961
107750
108555
109153
108954
107448
104633
101205
97842.2
95010.2
92889.6
91496.1
90807.5
106054
106360
106942
107719
108513
109112
108924
107379
104560
101087
97716.8
94918.3
92830.2
91456.7
90777.5
106049
106351
106927
107695
108479
109073
108882
107319
104486
100994
97628.3
94851
92783.2
91423.3
90750.7
106046
106347
106919
107683
108462
109052
108859
107287
104446
100949
97585
94816.5
92758
91404.6
90735.3
105002
105447
106333
107636
109226
110808
111720
109792
105433
100048
95439.5
92051.3
89726.3
88274.7
87579.6
105014
105461
106351
107661
109257
110841
111740
109821
105464
100095
95486.1
92090.8
89759.6
88304.5
87607.8
105037
105488
106389
107715
109325
110911
111797
109904
105574
100225
95598.1
92177.3
89829.5
88365.6
87664.8
105071
105529
106447
107800
109432
111049
111713
110012
105592
100463
95808.5
92321.7
89938.6
88457.5
87749
105111
105580
106520
107900
109563
111079
111092
109879
106534
100830
96103.3
92531.4
90085.4
88575.8
87855.6
105156
105637
106611
108052
109752
110410
111090
110008
106798
102273
96505.7
92793
90264.2
88711.9
87976.3
105197
105689
106685
108156
109164
110556
111215
110173
107016
102558
97985.6
93053.3
90445.1
88851.4
88097.6
105231
105731
106740
108223
109233
110682
111387
110271
107238
102803
98192.1
93225.8
90598.4
88973.5
88201.9
105254
105750
106756
108248
109278
110737
111461
110481
107397
102956
98353.8
93331.4
90670
89044
88275.2
105267
105757
106752
108230
109986
110721
111492
110536
107428
102980
97144.4
93300.7
90681
89070.9
88307.8
105269
105750
106717
108142
109873
111496
111574
110515
107347
101597
96827.1
93156.2
90622.5
89052.5
88302.4
105266
105738
106686
108085
109781
111480
112271
110688
106362
101234
96537.9
92983.1
90533.6
89003.8
88270.2
105260
105726
106656
108028
109701
111371
112350
110531
106243
100927
96288.5
92832.8
90444.4
88947.3
88228.3
105255
105716
106636
107989
109642
111298
112271
110413
106097
100745
96137.4
92729.9
90376.9
88900.8
88191.9
105252
105710
106625
107972
109615
111264
112243
110363
106036
100672
96070.1
92679.6
90341.6
88875.4
88171.3
103640
104253
105527
107556
110404
113969
117795
115134
107763
98664.7
92350.1
88470.1
86044.1
84618
83963.9
103649
104265
105545
107584
110443
114017
117819
115159
107794
98712
92394
88504.5
86072.4
84644.4
83990.1
103667
104288
105580
107643
110539
114133
117903
115242
107955
98862.8
92512.1
88584.8
86137.9
84703.6
84046.2
103694
104324
105641
107769
110780
114417
115705
115451
109693
99472.1
92838.1
88746.4
86246.7
84797.4
84132.3
103724
104366
105719
107904
110966
113019
115821
115565
109992
102001
93255.3
88971.1
86400.3
84919
84243.1
103764
104427
105840
108200
110215
113337
116031
115693
110258
102604
95787.9
89349.7
86588.8
85072.1
84374.3
103796
104465
105898
107659
110359
113588
115280
115278
110949
103980
96373.4
91468.7
86769.8
85218.2
84507.3
103830
104510
106008
107722
110490
113758
115498
115558
111375
104444
96839.1
91796.4
87070.2
85357.4
84635.6
103850
104524
105967
107748
110536
113839
115620
115800
111654
104750
97077.9
91972.5
87071.5
85460.3
84721.9
103871
104545
105985
108393
110465
113763
115710
115878
111719
103885
96880
90085.6
87145.7
85516.2
84768.7
103878
104534
105920
108161
111316
113556
116513
116471
111219
103507
94352.3
89838.8
87083.5
85490.2
84762.7
103881
104528
105880
108066
111166
114933
116366
116348
110894
100581
93821.9
89585.1
86960.7
85427.8
84721.8
103881
104519
105846
107964
110938
114634
118541
116046
108764
99720.1
93347.4
89357.1
86841.3
85354.1
84668.2
103879
104511
105824
107915
110845
114507
118414
115837
108503
99436.9
93127
89220.5
86754.2
85294.8
84622.3
103878
104507
105815
107895
110809
114456
118370
115748
108410
99324.8
93033.4
89155.8
86709.8
85262.9
84596.6
101459
102191
103775
106492
110831
117677
123255
128603
115052
93923.3
86539.3
82965.3
80900
79812.2
79353.1
101463
102197
103786
106515
110876
117732
123287
128619
115021
93890.2
86542.4
82973.3
80916.6
79833.8
79376.4
101467
102206
103803
106548
110948
117851
123364
128686
115042
93916.2
86572.7
82991.7
80955.3
79879.6
79426
101482
102228
103851
106666
111407
115810
123571
128917
115160
98610.9
86824.8
83026.6
81035.8
79968.9
79508.1
101484
102236
103877
106808
110281
116194
124040
126714
116795
99586.7
90391.8
83153.5
81106.5
80065.1
79610.3
101508
102259
103993
106471
110505
115424
122466
125957
117245
102405
91038.3
85919.6
81265.1
80192.8
79741.6
101516
102263
104037
106587
110759
115598
121782
126339
118383
104086
93315.7
86401.2
81443.8
80334.7
79875.4
101537
102272
104090
106712
110193
115235
122050
126807
119191
105010
93984.1
86858.5
83668.7
80440.6
80022.6
101569
102320
104110
106722
110248
115825
122248
127233
119936
105770
94501.5
87117.5
81893.8
80644.5
80138
101605
102368
104130
106648
110909
115896
122284
127398
120168
106048
94650.3
87200.9
82006.4
80735.5
80204.5
101627
102393
104068
107060
110648
116823
123051
128158
119213
104413
92452.2
84377.3
81969.7
80740.3
80205.6
101650
102416
104076
106958
111803
116399
124430
130092
116765
100486
88144.2
84078.7
81877.4
80680.2
80160.5
101663
102419
104054
106859
111350
118384
124100
129592
116114
94909.2
87549.5
83879.5
81743.7
80593.2
80098.1
101671
102423
104048
106835
111280
118253
123926
129353
115773
94646.3
87344.7
83749.9
81648
80525.5
80045
101675
102425
104044
106819
111239
118197
123869
129265
115673
94545.5
87246.8
83683.8
81599.8
80489.4
80015.6
98245.1
98947.1
100518
103391
108301
115069
131408
161181
119230
86314.2
76054.8
74803.3
74132.3
73942.4
73902.9
98239.8
98942.8
100517
103390
108316
115092
131436
161218
118850
86057.4
75946.1
74756.5
74128.8
73955.1
73920.7
98225.1
98923.2
100491
103346
108250
115139
131453
161292
118696
85947.7
75845
74709.8
74136.8
73985.7
73961.2
98207
98901.5
100462
103182
107724
115600
131589
161316
118503
86086.6
79348
74495.9
74162.4
74043.6
74031.4
98169.3
98844.3
100325
103339
107826
114831
128813
161376
119648
90290.8
79335.6
76934.8
74102
74116.6
74124.1
98138.2
98743.7
100851
103447
107663
114924
127592
156691
125115
93024.4
82180.1
77214.9
76123.8
74202.2
74248.9
98127.6
98730.9
100887
103502
107768
114620
127691
157041
126511
94478.2
84379.1
79350
76378.2
74403.3
74414.3
98123.6
98728.3
100980
103572
107837
114704
127863
157626
128991
96751.3
85606.6
80025.6
76769.7
74619.8
74551.6
98173.5
98779.9
100962
103630
107917
114796
128042
158245
131940
98946
86668.6
80562.4
76983.5
74747.6
74699.6
98217.8
98830
100982
103586
107940
114873
128172
158508
132753
99460.2
86942.4
80709.7
77117.8
74813
74762.4
98288.3
98978.9
100487
103554
108144
115330
128244
158219
130087
97699
85024.4
78714.8
75106.4
74868.4
74772
98350.9
99063
100662
103439
107976
116036
129479
162539
121241
93143.5
81286.9
75697.9
75096.6
74814.9
74726.8
98388.7
99104.2
100708
103621
108611
115658
132175
162232
119665
87232.3
76860.5
75659.9
74971.7
74729.8
74659
98413.8
99133.4
100742
103675
108687
115614
132114
162097
119246
86708.7
76754.6
75554.6
74879.2
74661.1
74601.7
98425
99144.7
100753
103683
108680
115568
132089
162035
119399
86661.5
76709.5
75511.6
74833.6
74623.8
74570.2
93943.2
94358.8
95287.3
97004.5
99854.5
106465
113692
110851
35112.4
56513.5
61073
64206.8
66208.4
67479.9
68065.4
93929.6
94343.4
95269.7
96980.1
99844.5
106452
113709
110858
28110.2
55694
60832.4
64113.9
66190.9
67485.5
68079.2
93896.1
94299.2
95217.5
96934.8
99763.6
106403
113707
110983
27179.6
55399.1
60708.6
64112.1
66210
67517.2
68118.9
93847.8
94222
95114.3
96678.5
101116
106060
113565
111050
26798.8
55407.4
62204.6
64268.8
66287.9
67586.3
68196.8
93770.9
94115.8
94930.1
97878.2
100915
106566
114465
111057
26953.4
59015.4
64007.4
65813.8
66531.7
67732.6
68314.4
93683.6
94010.5
96109.1
97806.8
101459
106882
114368
110879
27995.7
60260.2
65649.3
66339.2
67968.8
67995.4
68479.8
93663.4
93984.7
96113.8
97766.1
101767
106882
114341
110749
33843.1
62679.3
67072.2
67998
68285.4
68250.8
68685.9
93661
93971.7
96103.4
98451.1
101804
106910
114355
110587
50567.7
67378.5
68954.3
69432.5
68715.9
68510.1
68850.8
93699.9
94021.3
96126.1
98470.7
101843
106961
114402
110470
73779.7
72050.7
70534.5
70133.1
68940.6
68604.1
68972.1
93737.9
94075.4
96185.1
97858.3
101877
107037
114513
110630
81398
73177.4
70852.5
69556.3
69030.7
68598
68996.2
93856.6
94209.8
95045.2
97979.5
101658
107136
114693
111081
59140.5
69351.6
69668.7
67830.3
67523.9
68492.9
68971.4
93951.4
94340.4
95267.1
96868.7
101294
106132
113814
111623
30024.7
60907
64313.1
65538.4
67247.9
68363.8
68894.2
94013.5
94430.4
95378.9
97150.1
100042
106611
114164
111790
25749
56476.1
61771.7
65062.8
67035
68250.3
68806.2
94053.8
94482.4
95439.7
97199.5
100133
106864
114309
111865
25241.4
55937.5
61573.1
64871.2
66911.6
68168.3
68739.5
94071.4
94502
95463
97232.3
100154
106908
114339
111854
27832.4
56142.2
61609
64839
66862.3
68128.7
68705.5
88832.1
88719.5
88469.1
88086.3
87971.4
91914.2
95538
108616
14808.1
34456.3
47146.4
54182.3
58760.3
61459.2
62676.2
88815.2
88700.1
88448.3
88063.1
87964.9
91890.8
95526.3
108459
2694.42
33766.5
46878.9
54086.7
58741.2
61462.2
62688.8
88778.6
88656.4
88402.9
88060.7
87942.3
91824.5
95480.1
108442
4638.82
33707.4
46902.1
54143.8
58791.1
61512.4
62736.4
88730
88580.5
88322.9
88121.3
90758.2
91815.8
95332.1
108373
2686.54
33763.9
47093.1
54462.6
58936.8
61628.6
62837.5
88665.4
88500.1
88300
90170.1
90814.6
93711.6
96479.2
108411
3009.35
33845.2
47955.4
55388.5
59274
61857.4
63001.8
88597.2
88501.8
89908.6
90113
92091.6
94558.5
96422.8
108085
3075.5
34748.6
48896.4
55833.4
60214.1
62167.3
63232
88590.2
88508.4
89823.4
90115.4
92771.7
94525.7
96401.1
108013
2406.24
36442.9
50120.9
56859.7
60598.7
62437.5
63448.4
88585.2
88497.6
89795.8
91117.7
92765.1
94526.7
96403.6
107964
6850.05
39979.7
51814.7
57882.5
61003.8
62697.8
63618.1
88607.7
88526.4
89808.9
91126.3
92785.8
94546
96416.9
108072
7217.54
43365.3
53153.1
58475.8
61258
62799
63728.2
88629.1
88540
89866
90187.2
92828.3
94599.2
96471
108187
2248.58
42781.7
53218
58316.5
61303.3
62776
63725.6
88710.5
88549.7
88374.6
90183.8
92237.5
94718.2
96590.9
108350
16497.9
40885
52115.6
57247.9
60258.1
62586.1
63632.1
88782.4
88641.3
88402
88237.7
90974.2
92180.2
95816.3
108818
3556.4
36519.5
49235.9
55607.8
59838
62360.4
63495.5
88836.7
88723.5
88488.7
88174.5
88103.7
92061.3
95753.9
108827
4769.22
34856.9
47830.6
54988.3
59545.8
62190.6
63375.8
88874.4
88769.7
88541.1
88194.4
88140.3
92142.9
95895.8
108946
6159.05
34358.5
47547.8
54753.5
59392.3
62086.7
63296.6
88892.4
88790.6
88563.7
88220
88151.4
92210.6
95964.4
109007
2408.3
34218
47582.2
54691.7
59334.2
62044.3
63260.2
83620.5
82920.1
81463.4
79130.6
78701.4
77381.2
79769.7
2176.86
25421
39491.8
47897.6
53688.7
57163.9
58777.6
83603.9
82901
81442.3
79110.9
78672.8
77353.9
79749
2252.82
25247.1
39384.1
47869.5
53678.9
57165.5
58786.1
83575
82872.4
81405
79083.5
78683.1
77340.1
79694.2
2200.74
25276.6
39538
47942.9
53731.8
57214.8
58827.4
83549.6
82842
81358.3
79217.2
78963
77280.6
79559.1
2253.3
25188.3
38377.5
48205.3
53848.9
57324.3
58916
83535.3
82831.8
81485.5
81350.8
79536.1
79432.9
80309.4
2245.54
23083.6
38033.1
47907.5
54110.7
57528.5
59067.6
83526.9
82953.1
82959.3
81616.7
80926.4
80472.2
80348.9
2252.26
23421.2
38169.7
48229.9
54157.9
57716.9
59271.1
83538
82978.6
82945.9
81719.1
81758.5
80584.7
80472.8
2272.17
24304.5
39011.2
48519.9
54521.6
57905.1
59442.8
83530.2
82977
82938.1
82604.4
81878.6
80642.3
80563.8
2285.43
26628.7
40232
49076.7
54818.9
58117.6
59592.1
83538
82977.7
82934.5
82617
81875.5
80616.2
80502.1
2301.27
28556.1
41033.3
49507.2
55028.9
58216.6
59702.3
83531.6
82965.5
82951.6
81726.1
81764.8
80557.7
80410.5
2517.7
27299.9
40858.1
49553.5
55105
58245.9
59720.1
83535.3
82831.1
81503.8
81384.9
80912.2
80498.6
80383.3
2331.5
25835.8
40182.2
49305.6
54913.3
58164.7
59628
83543.5
82840.5
81361.7
79252.5
79092.5
77536.8
79471.4
2327.67
25215.8
39881.2
49101.7
54605.8
57961.9
59498.6
83562.8
82864.7
81408.8
79105.1
78749.1
77430.4
79796.3
2363.64
25987.1
40260.2
48645.2
54382.9
57807.7
59391.5
83584.6
82886.5
81441.1
79142.3
78765
77483.6
79929.2
2378.99
26010.9
40024.1
48479.3
54260.3
57716.2
59323.6
83597.5
82901.7
81456.6
79153.3
78742.3
77516.8
80002.4
2356.65
25832.8
39985.3
48394.4
54208.5
57679.3
59293
79232.2
77988.2
75375.3
70797.2
68326.1
60347.4
55737.2
2424.79
2174.64
23811.8
37377.8
45917.4
51869.2
55448.4
57158.4
79210
77960.5
75335.5
70739.5
68269.6
60282.3
55693.7
2568.53
2215.78
23384.2
37297.6
45883.6
51843.9
55436.6
57152
79174.1
77922.3
75267.3
70618.8
68187.2
60159.2
55618.5
2575.79
2202.14
21124.3
37442.7
45947.2
51855.2
55447.1
57157.4
79145.4
77896
75160.9
70536.2
68085.8
59983.2
55549.3
2295.05
2259.17
20868.2
34621.6
45942.9
51850.2
55481
57181.4
79142.8
77880.3
75102.6
73546.2
67821.3
62958.2
57478.8
2295.18
2246.87
18669.5
33263
44237
51908.7
55578.3
57247.2
79152.2
77895.5
77066.2
73422.3
69859.6
64393.1
57680
2301.59
2275.27
18298.1
32646.7
44306.6
50928.7
55655.9
57361.8
79150.1
77889.5
77051.7
73322.6
70780.3
64585.4
58164.2
3099.45
2314.95
18515.4
33123.8
43786
51139.8
55753.8
57460.3
79133.7
77883.5
77026.5
74723.1
70799.4
64721.4
58735.2
5980.59
2590.35
22376.9
34187.5
43874.9
51364
55891.9
57570.2
79134.6
77874.5
77022.9
74730.7
70766.7
64589.5
58205.1
2519.7
2269.6
20109.5
34439.7
44162.6
51539.5
55996.8
57674.8
79126.9
77870
77056.1
73321.4
70745.4
64408.8
57781.8
2308.01
2256.58
19023.2
34190
44557.2
51640.4
56078.3
57736.3
79096.3
77831.6
75054.4
73512.7
69841.8
64320.2
57592.4
2287.18
2342.93
20065.4
34074.3
45230.1
52546.5
56100.3
57717.1
79076.8
77829.4
75094.2
70485.6
67970.2
59978
55590.8
2287.9
2305.11
20623.5
35600.8
46649.2
52458.7
56003.5
57669.9
79084.2
77830.4
75177.1
70531.1
68060.2
60089.4
55617.3
2265.86
2372.23
21655.1
37926.1
46498
52385.1
55936.8
57630.6
79101
77847.9
75217.8
70626.1
68187.2
60243.2
55729.4
2339.3
2388.15
24845.7
37746.3
46445.4
52335.7
55901.7
57608.3
79112.3
77863
75241.6
70661.2
68233.7
60346.5
55856.3
2444.32
2395.92
25018.5
37757.3
46398
52312.3
55887.7
57598.3
76506.3
74854.3
71339.4
65104.7
54352.6
44083.1
18506.3
2248.86
2179.7
26799.7
39588.7
47646.7
53173.7
56474.2
58052.4
76468.2
74805
71256.5
64978.3
54140.4
43858
18587.2
2262.85
2219.82
26200.3
39386.7
47523.3
53097.5
56431.1
58020
76404.7
74731.4
71137.4
64820.8
53838.2
43384.5
18409.7
2257.85
2208.78
21702.7
39165.7
47469.5
53017.7
56372.6
57969.7
76337.9
74670.4
70982.4
64641.6
58264.9
42960.2
18426.8
2273.82
2250.18
21372.9
34859.5
47189.3
52843.4
56279.9
57904.6
76297.4
74629.8
70924.9
67205
58181.8
46850.4
24965.2
2288.14
2293.5
17564.4
32576.6
44167.3
52689.9
56231.3
57861
76281
74594.4
72566.5
67160.3
60455.6
48864.5
25877.6
2292.34
2285.01
15880.5
31089.6
43940.1
50751.4
56211.6
57871.2
76251.5
74553.4
72590.9
67099.6
61502.7
49238.6
26963.5
2299.38
2259.67
15098.4
31035.6
42647.7
50768.1
56228.7
57899.3
76224.6
74533.9
72576.1
68491.8
61483.3
49427.2
27928.1
12047.1
8606.57
19629
31956.8
42303.8
50904
56312.5
57972.4
76221.1
74524.1
72567.4
68482.1
61432.1
49179.2
26581.7
2374.94
2252.55
18386.1
32318.8
42574.2
51082.4
56427.3
58071.7
76229.7
74538
72581.5
67075.5
61418
48903.3
26012
2284.69
2275.07
17328.7
32321.1
43379.6
51254.6
56555.8
58175.9
76205.3
74535.9
70825.8
67211
60384.2
48746.9
25757.5
2284.27
2395.35
18759.8
32601.8
44853.9
53210.6
56657.9
58241.7
76206.3
74534.3
70832
64485
58151.6
42979.2
20113.1
2273.64
2303.68
19991.4
35490.4
47712.5
53308.3
56694
58296.5
76233.6
74547.4
70934.8
64592
53614.4
43129
18412.4
2244.94
2378.26
21914.9
39400.2
47831.1
53393.8
56750.7
58348
76262.4
74581.3
70997.9
64677
53820.5
43491
18486.2
2243.49
2393.77
26881
39536.1
47903.9
53445.6
56791
58382.9
76280.5
74605.7
71045.5
64747.5
53953.2
43763.1
18633.4
2258.84
2419.97
27291
39656
47954.3
53483.2
56815.1
58402.6
76086.2
74402.4
70795.7
64523.3
53676.3
41582.9
6632.85
2280.18
5425.25
34660.8
45686
52659.2
57257.2
59922
61191.5
76026.5
74324.4
70656.1
64255.6
53330.1
40465.1
5641.67
2245.92
3677.7
34208.6
45340.1
52426.9
57120
59837.5
61126.7
75930.4
74208.9
70463.7
63966.7
53341.4
39086.3
7418.48
2257.19
2239.94
26353.5
45051.2
52231.9
56926.4
59707.5
61019.2
75825.9
74104.6
70292.1
63771.2
55321.9
38148.7
9137.96
2278.03
2321.48
25964.9
39512.3
51758.8
56583.2
59501.9
60874.6
75752.8
74045.6
70276.7
65139.5
54954.9
40616.7
17990.9
2282.83
2284.41
20156.7
36109.2
47814.6
56307.5
59337.9
60742
75713.9
74018.8
71068.4
64995.7
56394.5
41866.4
18243.2
2281.95
2279.35
17492.6
33725.6
47247.8
53640.7
59254.5
60673.2
75663.6
73959.7
71049
64921.6
57072.9
42106.4
20662.9
4215.59
2782.28
15595.9
33017.4
45207.6
53465.5
59203.4
60643.7
75631.7
73929.3
71037.8
65848.8
57007.6
42181.6
20111.2
2293.59
2273.88
16742.1
33355.5
44430.8
53526.7
59250.2
60689
75622.4
73920.2
71036.3
65844.5
56998.9
42159.7
20786.4
4728.54
2289.94
18840
34085.1
44743
53716.8
59370.9
60785.8
75641.6
73942.4
71035.1
64938.9
57061.1
42003
18703.8
2321.94
2301.21
19742
34713.1
46012.8
53984.5
59537.8
60921.5
75622.1
73911.3
70132.1
65068.2
56377.1
41919.4
18287.4
2285.11
2338.78
20980.3
35359
48220.6
56722.2
59681.8
61044
75637.7
73902.3
70057.8
63512.1
54973.3
38357.4
17509
2270.07
2331.98
22880.3
39590.4
52112.2
56921.1
59811
61170.9
75683.3
73933.4
70135.2
63553.4
52861.8
38266.7
7932.49
2270.58
2389.2
25997.4
44967.9
52385.9
57134.3
59960
61290.8
75727.7
73986.3
70234.6
63714.2
52647.2
39954
5823.24
2244.57
6205.58
33940.6
45235
52565.2
57280.3
60064.2
61375.9
75756.4
74023
70309.5
63847.3
52830.5
40522.4
5620.16
2238.02
4837.74
33960.1
45350.4
52679.9
57364.2
60122.2
61423.3
78169.6
76945.4
74367.1
70237.4
61540.9
52523.5
18092.2
2238.5
36260.4
52917.6
56678.9
61022.6
63742.3
65315.7
66095.2
78088.6
76832.3
74153.5
69721
60364.7
50270
2363.48
2286.72
34134.7
52057.1
56091.8
60695.2
63548.2
65196.6
66005
77962.9
76674.1
73894.6
69145.9
61952.7
47015.3
15060.5
2427.12
16798.9
40456.4
55866.1
60273.7
63243.5
65009
65855.2
77825.3
76503.2
73594.4
68695.1
60533.9
45004.9
15509
2296.29
7145
37401.1
49148.1
59650.7
62800.7
64748.8
65661.2
77723.7
76388
73489
68326.5
59463.6
44783.8
20533.5
2281.08
2251.93
28493.4
44750.8
55045.9
62452
64513.5
65479.9
77663
76348.7
73193.3
67885.6
59323.5
44552.4
19838.1
2277.29
2288.49
25270.4
41523.9
54279.8
59297.4
64410.7
65369.3
77595.1
76269.2
73052
67694.1
59238.7
44040.6
19170.4
2266.61
2288.68
23008.7
40306.7
51725.7
59049.2
64327.5
65304.3
77560.4
76231.4
73014.4
67850.9
59039.3
43795.5
18792.3
2290.62
2545.21
22628.3
40168.9
50596.7
59057.3
64354.2
65330.2
77548.2
76222.3
73020.4
67856
59084
44071.1
20435.2
2346.85
2274.46
24594.5
40937
50920.3
59240.9
64469.8
65421.4
77574.9
76255.2
73048.2
67762.2
59329.4
44614.6
21465.1
2387.02
2316.76
26648.6
42002.2
52554.2
59556.8
64644
65570.3
77568.8
76225.4
73304.1
67996.5
59417.9
45068.2
22111.3
2347.73
2377.52
28158.2
43063.7
55300.5
62780.9
64779.7
65710.8
77599.2
76252.7
73291.8
68334.4
59649.2
44425.6
19952.2
2299.98
2362.61
31456.7
48644.7
59821.2
63000
64956.4
65872.6
77660.8
76326.3
73448.5
68519.4
61055.8
45273.4
14868.7
2358.49
16024.8
37736.2
55402
60213.8
63317.7
65160.7
66032.8
77719.8
76398.8
73575.6
68892.7
59216.7
48687.9
2428.49
2361.95
32111.9
50690.5
55686.1
60564.9
63551.3
65309.1
66152.6
77758.2
76449.4
73673.7
69119.5
59573.3
49817.6
2767.31
2455.01
31071.7
51317.9
55825
60746.1
63673.5
65390.7
66218.5
82227.7
81819.2
81060.5
81174
80325.8
90233.4
128859
126405
95202.8
78703
72337.6
72070.4
71845.1
71962.2
72114.3
82133.3
81675.4
80803.2
80538.3
78992.7
88670.8
128460
107713
90117.1
77098
71526.2
71640.2
71612.2
71826.8
72013.5
81986.1
81467.7
80469.1
79044
78297.3
71686.9
73263.5
61978.5
56410.9
64905.8
70509.4
70770.1
71224.3
71607.6
71843.2
81820.3
81231.8
79995
78221
72699.7
65244.6
45666.5
15267.8
28210.1
60397
64447
69895.9
70700.6
71320.7
71627.9
81695.9
81062
79769.7
75869.1
71296
60803
36772.3
11208.5
17699.7
47478.6
59309.5
65643.7
70286.5
71059.1
71428.9
81622.9
80993.1
78304.2
75337.8
69290
58224.6
33784
2235.89
2287.84
41258.1
55297.3
64810.1
67258
70904.8
71313.8
81546.2
80905.4
78075.5
75129.5
68354.8
56875.7
31054.5
2258.93
2226.36
37594.5
53682.6
61982.2
66988.7
70812.2
71236.3
81512.5
80869.7
78016.1
74306.3
68022.4
56115.8
28608.6
2284.36
2299.72
37868.1
53364.5
60665.7
67025.9
70829.2
71250
81498.6
80855.7
78020.1
74303.3
68015.2
56191.1
29861.6
2286.87
3225.86
39937.3
54162.2
60971.7
67184.7
70924.2
71327.8
81531.1
80891.2
78074.2
75158
68330.8
57021.5
32602.2
2353.5
11774.3
42871.7
55497.9
62771.3
67434.2
71086.9
71472.5
81539.4
80894
79561.6
75339.8
69299.5
58345.4
33980.2
2230.82
15693.7
45525.1
56886.5
65729.2
70527.8
71257.6
71601.8
81590.3
80971.6
79667
77799.8
71386.8
63332.9
37449
2314.94
13484.2
51198.2
63410.1
69946.8
70819.6
71462.4
71779.5
81672.1
81095.2
79961.1
78249.3
76996.5
66222.2
52113.3
40528.3
44411.8
60712.6
69865.9
70582.3
71211.1
71692
71958.2
81746.1
81203.9
80136.2
79441.6
76904
85153.6
113333
94622.4
85508
75437.9
70886.3
71354
71545.8
71876.9
72100.2
81790
81268.2
80248.2
79772.1
77322.6
86842.6
113261
112623
95779.6
78038
71604.9
71769
71730.1
71980.5
72178.8
87094.5
87484.6
88223.6
91415.9
95784.6
102123
125388
124693
111958
94980.1
86343.5
82519.5
79889.5
78806
78384.3
87019.1
87368.6
88095.4
91199.5
95699
103003
132883
137285
113359
94764.6
85869.1
82195.6
79702.6
78687.6
78294.1
86886.4
87137.9
87880.3
89630.9
94469
98647.4
124349
155311
121692
93861.9
84741.6
81258.3
79357
78471.7
78133.2
86726.4
86898.2
87370
88670.1
88723
95510.6
116706
159902
119184
90866.3
82001.1
80210.9
78839.7
78194.4
77926.4
86603.8
86721.2
87018.5
85725.7
86878
87569.8
91861.8
130933
96469.5
81708.7
78209.7
77494.4
78378.5
77932.3
77728.4
86539.7
86557.5
85086.7
85178
84171.7
83384.4
83176.9
54405.9
62113.2
74568.7
74701.5
76690
76214
77707
77606.1
86467.7
86462.3
84962.5
84931.8
82669
82168.8
78753.7
48012.8
42581.6
69691.2
72994.5
74667.3
76013.1
77596.4
77525.5
86442.3
86438.8
84918.6
83639.2
82451.8
81638.3
75486.2
5341.34
35082.8
68256.1
72486.2
73594.4
75972.5
77601.8
77533
86427.6
86422.1
84920.8
83613.7
82350.7
81221.4
74463
31171.7
51024.1
70836.6
73181.1
73848.4
76098.6
77675.7
77592.4
86459.8
86468.7
84953.1
84893.8
82462.6
81394.8
73461
19192
63586.2
74226.2
74488.6
75259.6
76333.7
77837.5
77726.1
86477.3
86589.9
86854.1
85292.8
84073.1
83092.4
82286.4
55114.7
72584.9
77652.2
75984.4
77330.3
78547.7
78080.3
77861.5
86539.6
86690.4
87119
88351.4
87594.5
92592.4
100281
138557
93487.5
84344.9
80849.2
80230.1
78929.6
78304.4
78045.4
86624.4
86825.8
87463
88994.6
93396.3
96470.5
121386
157409
118210
91442.7
84236.9
81100.9
79346.2
78538.6
78224.2
86694.3
86970.4
87539.2
90342.1
93896.7
101742
130999
130572
112056
93293.3
85333.8
81959.6
79667.2
78734.4
78369.1
86723.8
87014.3
87543.7
90369.9
93224.3
100362
120540
109476
113027
92923.9
85964.8
82356.6
79841.6
78840.6
78447.7
91436.5
92166
93207.4
96000.2
99860.2
99451.1
103254
107675
105231
97408.5
92953.7
89156.9
86137.9
84691.5
83988.1
91431.4
92159.2
93329.4
96397.9
100820
101427
107122
112179
106503
98494.8
93237.9
89193.4
86106.7
84639
83938.7
91394.1
92044.7
93521.8
96188.1
100798
104003
110147
122273
110057
101156
93126.6
88892.7
86014.6
84508.7
83838.1
91316.9
91936.8
93339.6
96279.2
98257.3
106342
119220
134138
120800
102485
93174.6
88464
85740.7
84319.8
83691.6
91238.5
91825.5
93185.2
93935.1
98229.1
105070
121636
156039
130366
104415
92453.3
87282.5
85413.7
84103.5
83529.9
91177.1
91611.4
91674.3
93649.4
96395.6
103799
123586
171087
133548
103433
91520.8
86916.6
84276
83840.3
83406.7
91125.9
91540.9
91626
93624.8
95695.8
104571
126064
176747
133498
102087
90899
86190.1
84172.8
83746.2
83338.1
91116
91526.3
91616
92544
95876.6
105845
134154
161147
128345
100938
90678.8
85860.6
84113.7
83743.7
83347.2
91102.8
91519.6
91612.9
92508.8
95800.6
105350
130246
159155
129727
101707
90928.1
85956.7
84183.8
83804.4
83389.3
91126.2
91555.9
91615.2
93564.6
95577.9
104280
125994
180541
133756
103161
91443.8
86421.8
84352.6
83939.5
83500.6
91171.5
91768.1
93124.1
93754
96419.8
104030
124976
174931
133542
104154
92023.8
87279.5
85557.1
84230.3
83644.2
91217.8
91842.4
93270
96290.3
98319.1
107582
123798
160965
129927
104063
92985.5
88586.7
85861.7
84435
83806.9
91249.2
91888.2
93364.8
96087.6
100733
105715
115473
131259
113688
102213
93256.2
88959.7
86093.3
84606.8
83941.3
91254.3
91966.6
93115.4
96355.6
100546
102298
110757
115811
109003
98403.2
93453
89230.5
86189.7
84734.5
84040.9
91232.5
91935.1
92936
95987.2
99424.7
100412
109015
113618
109180
96506.2
93499.5
89231.1
86224.7
84792.5
84089.5
94568.2
95215.2
95926.1
97220
99777.8
99251.9
99968.4
105231
100966
96973.5
95176
92456.3
90247.1
89070.5
88387
94640.9
95313.9
96170.6
97793
100670
100511
101644
104019
101653
98155.5
95637.3
92727
90353.4
89097.6
88395.6
94740.6
95373.6
96630.6
98496.8
101466
103125
106709
111565
106751
100766
96198.9
93002.6
90523.4
89101.1