/*--------------------------------*- C++ -*----------------------------------*\
| =========                 |                                                 |
| \\      /  F ield         | OpenFOAM: The Open Source CFD Toolbox           |
|  \\    /   O peration     | Version:  v2012                                 |
|   \\  /    A nd           | Website:  www.openfoam.com                      |
|    \\/     M anipulation  |                                                 |
\*---------------------------------------------------------------------------*/
FoamFile
{
    version     2.0;
    format      ascii;
    class       volScalarField;
    location    "0.041";
    object      p;
}
// * * * * * * * * * * * * * * * * * * * * * * * * * * * * * * * * * * * * * //

dimensions      [1 -1 -2 0 0 0 0];


internalField   nonuniform List<scalar> 
449343
(
102756
102883
103094
103291
103367
103086
102271
100847
98865.5
96540
94164.4
92015.5
90287.2
89090.6
88481.3
102738
102865
103076
103272
103348
103065
102249
100823
98843.4
96519.7
94145.5
91996.8
90267.8
89070.6
88460.8
102721
102849
103060
103255
103329
103041
102222
100796
98818.4
96499
94128
91979.7
90249.4
89050.6
88440.1
102707
102835
103045
103239
103309
103015
102192
100764
98789.9
96476.8
94112.1
91965.1
90232.9
89031.8
88420
102693
102821
103032
103224
103290
102987
102159
100730
98761
96455.7
94099.1
91953.7
90219
89015.1
88401.6
102680
102809
103020
103210
103272
102963
102131
100702
98737.6
96440.4
94090.1
91945.9
90208.1
89000.9
88385.7
102667
102796
103007
103197
103255
102943
102109
100679
98720.1
96429.6
94081.9
91939.9
90199
88988.9
88372.3
102653
102782
102993
103183
103240
102927
102088
100658
98700.3
96417.6
94073
91931.4
90189.4
88978.3
88361.2
102637
102767
102978
103168
103227
102916
102082
100653
98695.5
96407.2
94060.7
91919.2
90178.5
88968.6
88352
102621
102750
102961
103153
103216
102909
102079
100652
98690.5
96395.2
94046.3
91903.1
90166.1
88959.3
88344.3
102603
102732
102944
103137
103205
102905
102080
100655
98689.4
96386.6
94032
91888
90154.2
88950.8
88337.6
102585
102713
102925
103121
103193
102903
102084
100660
98690.5
96381.1
94019.2
91874.1
90143
88942.6
88331
102566
102695
102907
103105
103181
102898
102083
100662
98689.6
96374.3
94006.6
91860.5
90131.5
88933.4
88323.1
102548
102676
102889
103087
103166
102888
102077
100657
98682.5
96363.4
93992.6
91846.2
90118.5
88921.9
88312.4
102528
102657
102870
103069
103149
102873
102063
100644
98668.9
96348.2
93976.2
91829.7
90102.6
88906.7
88297.6
102613
102788
103100
103451
103702
103645
102966
101477
99241.8
96575.7
93899.7
91550.7
89711.6
88461.4
87831.2
102595
102770
103082
103433
103683
103624
102942
101453
99219.1
96555.3
93881.4
91531.9
89691.5
88440.3
87809.6
102579
102755
103067
103418
103666
103600
102913
101424
99193.9
96538.1
93866.8
91515.5
89672
88418.7
87787
102564
102741
103054
103404
103648
103571
102876
101380
99159.5
96516.4
93855.4
91502.7
89654.4
88397.6
87764.5
102551
102728
103043
103392
103633
103536
102835
101338
99110.4
96497
93850.4
91495.1
89639.9
88378.6
87743.4
102538
102717
103034
103383
103620
103511
102800
101305
99089.8
96485.1
93850.5
91492.8
89629.6
88362.6
87725.2
102525
102705
103023
103372
103602
103495
102778
101281
99072
96483
93862.5
91495.3
89621.7
88350.1
87710.6
102511
102692
103010
103360
103588
103478
102753
101211
99045.8
96469.3
93856.3
91488.8
89612.4
88339.6
87699.4
102496
102676
102995
103344
103575
103468
102752
101256
99049
96462.1
93843.1
91476.1
89602.3
88330.6
87691.3
102479
102659
102976
103326
103564
103457
102749
101256
99043.7
96441.8
93808.2
91451.8
89589.5
88322.8
87685.6
102461
102639
102955
103306
103548
103454
102757
101265
99042.4
96431.2
93786.5
91432.4
89578
88317
87682
102443
102620
102935
103287
103534
103460
102770
101279
99063.3
96424.6
93766.5
91415.6
89568.1
88311.8
87678.8
102425
102601
102915
103269
103520
103458
102777
101293
99068.8
96417.1
93749.9
91400.8
89558.4
88305.4
87673.9
102406
102582
102896
103250
103503
103448
102773
101290
99062.9
96404.6
93734
91386.4
89547
88296.1
87665.5
102387
102563
102877
103230
103485
103433
102760
101279
99050.1
96389.3
93717.3
91370.4
89532.1
88282.1
87651.9
102246
102530
103069
103783
104501
105009
104737
103086
100173
96612.9
93200
90396.6
88316.8
86952.3
86278.5
102228
102512
103052
103767
104485
104988
104711
103059
100149
96594.2
93182.7
90376.9
88294.6
86928.9
86254.6
102211
102496
103039
103756
104474
104968
104675
103028
100121
96584.2
93174.7
90360.7
88271.6
86902.7
86227.4
102196
102483
103030
103749
104466
104937
104613
102977
100057
96567.9
93179.6
90351.9
88250
86875.7
86198.7
102183
102473
103025
103748
104458
104885
104505
102855
99955.6
96575.7
93194.5
90350.3
88232.6
86850.2
86170.8
102170
102464
103023
103750
104464
104843
104448
102815
99930.6
96583.2
93228.2
90359.6
88220.2
86829
86146.6
102158
102455
103016
103751
104441
104836
104417
102785
99909.4
96586.7
93333.9
90380.4
88216.2
86813.9
86128.3
102145
102443
103005
103742
104435
104832
104422
102794
99885
96573.2
93324.8
90375.2
88207.5
86803.6
86116.7
102130
102426
102987
103723
104415
104810
104394
102763
99890.2
96568.1
93317.9
90363.8
88198.6
86796.5
86111.1
102113
102407
102967
103695
104409
104792
104399
102769
99890
96544.3
93190.3
90323
88184.7
86793.7
86111.3
102095
102385
102938
103662
104375
104804
104429
102785
99892.4
96515.7
93138.1
90294.6
88177.4
86795.1
86115.6
102077
102365
102913
103635
104355
104828
104511
102882
99969
96485.6
93100.4
90274.1
88172.3
86798
86120.8
102060
102346
102890
103609
104331
104830
104544
102904
100005
96473.4
93068.2
90256.6
88168
86799
86123.5
102042
102327
102869
103586
104308
104817
104548
102905
100004
96456
93048.6
90243.7
88161.3
86795.1
86120.6
102023
102308
102849
103566
104288
104801
104538
102896
99992.4
96440.4
93031.6
90229.4
88149.3
86784.1
86109.9
101525
101967
102849
104145
105726
107303
108195
106233
101831
96400.3
91737.5
88302.4
85937.9
84458.5
83749.2
101506
101949
102832
104131
105713
107288
108160
106204
101801
96381.5
91719.1
88278.4
85910.6
84430.3
83721
101487
101932
102821
104128
105714
107281
108121
106182
101794
96396.4
91718
88255.7
85878.1
84395.3
83685.6
101470
101918
102817
104138
105725
107285
107916
106150
101656
96463.4
91758.7
88242.1
85843.5
84355.8
83645.4
101454
101908
102819
104151
105751
107210
107114
105815
102428
96591.7
91823.9
88247.1
85810.9
84315.3
83604.1
101441
101902
102835
104209
105821
106406
106969
105756
102439
97829.8
91934.1
88267.7
85787.7
84278.3
83567
101428
101896
102839
104220
105157
106423
106914
105694
102380
97833.8
93240.7
88290.5
85770.6
84254.1
83540.3
101414
101886
102835
104217
105145
106430
106922
105584
102360
97828.9
93211.8
88283.6
85770.1
84246.3
83526.6
101400
101867
102809
104191
105126
106406
106890
105651
102356
97817.9
93209.4
88273.6
85754.6
84240.1
83526.7
101386
101848
102782
104158
105768
106356
106889
105677
102363
97805
91910.4
88241.9
85760.7
84250.6
83539
101369
101823
102733
104065
105670
107130
107011
105726
102386
96541.1
91779.1
88203.2
85766.9
84270.7
83559.2
101355
101804
102704
104029
105620
107181
107825
106067
101584
96396.9
91695.9
88179.5
85780
84291.4
83580.4
101340
101786
102676
103985
105576
107146
107997
106070
101691
96302.4
91630.2
88169.4
85791
84307.1
83596.6
101325
101768
102654
103956
105542
107120
108007
106064
101676
96266.7
91607.4
88165.4
85795.9
84313.8
83603.5
101308
101751
102634
103934
105519
107101
108006
106059
101671
96254
91594.4
88158
85790.2
84308.5
83598
100250
100864
102142
104177
107033
110615
114450
111736
104346
95197.9
88812.9
84866.7
82380.4
80913.2
80238.9
100228
100843
102123
104163
107025
110608
114413
111711
104325
95184.3
88788.1
84831
82343
80877.4
80204.3
100203
100822
102109
104163
107049
110639
114391
111690
104342
95198.4
88773.6
84784.3
82290.5
80827.5
80156.3
100178
100802
102104
104209
107187
110766
112039
111733
105910
95599.9
88888.1
84750.5
82225.8
80766.1
80098
100154
100783
102109
104249
107243
109245
111964
111607
105935
97857
88987.1
84706
82152.5
80695.6
80034.3
100133
100778
102150
104433
106362
109401
111944
111429
105823
98048.9
91199.6
84741.1
82069.9
80632.7
79975.1
100113
100758
102138
103837
106416
109473
110991
110727
106154
99034.8
91354.1
86585.7
81962.9
80568.5
79928.8
100101
100754
102192
103832
106447
109495
110991
110686
106155
99054.7
91405.1
86625.1
82062.9
80553.6
79916.4
100085
100729
102106
103803
106419
109472
110959
110686
106127
99047.8
91388.7
86612.4
81951.2
80560.2
79920.5
100082
100728
102102
104384
106306
109355
111019
110701
106126
98068.1
91248.9
84729.5
82052.8
80615.4
79957.6
100072
100700
102027
104167
107163
109204
111852
111396
105769
97919.7
88963.3
84678.5
82124
80665.8
80003.8
100069
100694
101998
104105
107088
110669
111903
111613
105909
95563.7
88851.9
84711.8
82182.5
80720.2
80050.9
100063
100681
101969
104025
106914
110510
114274
111594
104262
95134.3
88714.4
84723.6
82226.6
80760.8
80087.9
100054
100670
101952
103995
106861
110445
114271
111574
104227
95107.3
88711.6
84748.5
82254.6
80784.8
80109.4
100040
100655
101935
103972
106833
110417
114276
111575
104221
95096
88708.3
84754
82260.4
80788.3
80111.4
98169.3
98908.3
100506
103246
107618
114505
120100
125519
111939
90731.7
83236.9
79553.7
77399.3
76252.7
75764.1
98141.5
98881.1
100480
103227
107613
114501
120079
125478
111880
90670.7
83181.1
79492
77345.8
76206.8
75721.6
98106.1
98846.8
100449
103200
107611
114530
120044
125411
111764
90542.2
83066.6
79375.1
77257.9
76135.8
75657.9
98066.2
98812.8
100432
103240
107973
112323
120088
125437
111640
94951.3
83060.8
79180.4
77137.4
76043.9
75576.5
98019.7
98763
100386
103287
106732
112573
120337
122945
112934
95556.1
86250.1
78952
76923.1
75918.5
75481.6
97982.9
98720.7
100423
102854
106815
111603
118522
121804
112851
97798.8
86318.2
81301.9
76717.5
75784.1
75389
97944.1
98669.7
100396
102876
106933
111619
117572
121734
113297
98714
88014.1
81292.4
76548.4
75671.7
75316.7
97921.7
98635.7
100385
102924
106276
111091
117564
121677
113239
98738.5
87984.2
81274
78492.6
75623.3
75299.2
97918.6
98645.1
100373
102883
106255
111554
117550
121668
113241
98747
87988.6
81241.6
76557.2
75673.6
75316.1
97934.9
98673
100375
102784
106865
111588
117512
121712
113299
98733.3
88056.8
81316.1
76710.6
75780.5
75385.3
97943.6
98686.2
100309
103213
106650
112541
118356
122737
112836
97663.5
86331.2
78951.1
76917.8
75908.5
75469.8
97963.7
98711.6
100333
103140
107875
112254
120017
125337
111564
95061.9
83059.2
79172.8
77117.8
76021.5
75552.1
97973.7
98714.5
100317
103071
107483
114405
119911
125276
111661
90530.4
83050.9
79350.6
77224.7
76096.5
75615.4
97977
98717.7
100319
103068
107459
114349
119911
125327
111773
90657.4
83152.5
79448.6
77291.3
76144.2
75654.9
97969.2
98709.1
100308
103050
107426
114317
119925
125370
111851
90721.7
83192.1
79485.2
77315.4
76159.2
75666
95061.8
95777.4
97376.8
100291
105266
112090
128552
158528
116488
83373
73017.1
71623.4
70827
70554.4
70473.9
95026.5
95741.4
97338.2
100250
105231
112060
128504
158471
116305
83232.7
72896.5
71522.6
70757.3
70499.3
70424.7
94973.4
95680.7
97267.3
100151
105093
112005
128383
158353
115982
83002.3
72669.2
71339
70634.6
70407
70347.4
94907.9
95608.9
97183.1
99912.7
104436
112322
128342
158143
115526
82876.8
75896.1
70885.1
70443.6
70276.4
70245.5
94821.3
95496
96974.1
99945.4
104426
111400
125349
157912
116305
86605.6
75421
72918.1
70070.9
70103.2
70121.1
94735.7
95335.9
97407
99977.5
104138
111329
123877
152811
120985
88463.9
77524.4
72654.2
71659.6
69912.8
70002.7
94682.7
95274.9
97381
99949.1
104134
110865
123719
152614
120893
88382.7
78690.9
74085
71501.4
69844.3
69935.1
94640.5
95232.1
97418.8
99953.3
104110
110808
123632
152504
120922
88369.9
78630.8
74022.6
71476.8
69838.9
69901.8
94658.7
95251
97366.1
99961.8
104119
110796
123614
152476
120961
88391.8
78647.5
74031.3
71464.9
69852.4
69943.2
94693.3
95294
97368.1
99896.6
104114
110823
123673
152552
120949
88436.3
78719
74125.6
71583.1
69928.2
70017.3
94751.5
95426.2
96905.2
99868
104341
111308
123819
152747
121043
88530.2
77697.6
72800.3
70102.4
70121.2
70133.3
94814.2
95515.1
97090.8
99817.5
104220
112128
125287
157868
115612
86962.1
75757.7
70905
70458.6
70284.6
70248.7
94852.4
95560.9
97147.5
100036
104977
111865
128235
158091
115749
82967.6
72712.6
71355.6
70637.4
70400.5
70335.9
94874.7
95590.3
97189.4
100103
105086
111917
128309
158245
116048
83198.3
72921.6
71526.5
70742.8
70471.9
70391.1
94875.1
95591.9
97192.7
100108
105086
111901
128355
158328
116404
83443.1
73055.2
71610.7
70786.3
70497.7
70410
90862.4
91298.8
92270.2
94051.8
96981.6
103650
110992
108426
26767.8
53517.1
58355.1
61269
63110.8
64277.4
64810.2
90820.4
91253.7
92219.8
93990.1
96925.2
103590
110942
108325
26736.7
53322
58185.2
61165.3
63044.1
64220.6
64759.8
90752.4
91172.3
92125.4
93895.4
96783.2
103459
110820
108225
24164.7
53013.3
57948.3
61032.5
62937.9
64133.4
64684
90661.1
91051
91975.4
93579.4
98008.7
103008
110530
108065
23578.1
52876.2
59210.6
60952.1
62804.3
64014
64589.3
90540.9
90893.3
91727.1
94659.7
97720.3
103353
111244
107812
23847.8
55959.8
60519.7
62082.7
62729.4
63902.4
64482.3
90407.2
90739.5
92807.7
94509.5
98136.8
103530
110974
107409
23926.7
56173
61313.4
62048.1
63668.8
63873.4
64397.1
90351.5
90672.9
92758.2
94404.9
98344.3
103414
110792
107170
24278.1
56176.6
61319.3
62852.6
63560.4
63853.3
64363.6
90316.3
90625.5
92708.7
95010.3
98312.5
103347
110688
106981
24931.2
56133.4
61279.6
63278.6
63587
63873.3
64346.6
90329.8
90650.7
92702.7
94992.3
98303
103336
110667
106940
25018.9
56148.7
61283
63286.5
63573.2
63871.7
64381.2
90369.1
90699.2
92743.9
94393.1
98310.9
103382
110742
107067
25314.2
56261.1
61342.5
62887.3
63613.3
63902.7
64430.1
90480.9
90835.5
91669.6
94516.6
98110.4
103480
110911
107303
24464.8
56282.1
61338.6
62044.5
62781.5
63951.1
64523.6
90580.7
90970.1
91893
93500.9
97814.3
102589
110116
107735
23985.1
54628.6
59092.6
61019.6
62861.2
64057
64625.2
90646
91067
92021.3
93788.6
96678.4
103112
110507
107926
23687.4
52967.9
58034.7
61097.7
62981.6
64163.4
64707.6
90685.5
91120.2
92089
93863.3
96801.7
103409
110716
108065
24332.3
53336.1
58292.5
61219.7
63070.8
64231.6
64762.7
90693.4
91131.3
92105.8
93891.5
96825.3
103470
110787
108125
26000.6
53854.5
58506.9
61319.1
63115.4
64259.5
64783.1
85835.9
85751.5
85559.2
85267
85256.8
89283.5
92985.4
106082
2316.1
32141.2
44740
51472
55870.6
58440.4
59593.6
85793.3
85705.4
85509.9
85212.5
85216.7
89221.6
92929.2
105883
3523.31
32127.4
44630.3
51418
55819.6
58390.6
59548.3
85726.9
85629.7
85427.9
85165.7
85147.8
89093.4
92805
105767
2326.82
32129.3
44549.9
51366.1
55758.1
58330.4
59488
85641.7
85516.2
85310.1
85186.5
87849.3
89001.3
92553
105600
2341.98
32190.8
44646.1
51468.9
55707.5
58268.8
59424.8
85539.9
85391
85237
87118.4
87827.1
90757.1
93547.1
105520
2313.05
31841.7
45105.8
52039.3
55721.5
58242.5
59375.1
85433.8
85353.8
86759.5
87002.1
88992.8
91475.8
93361.6
105066
2564.81
32011
45267
51902.8
56221.7
58229.8
59343.2
85396.5
85325.5
86634.3
86945
89581.6
91348.6
93218.8
104840
2325.96
31880.9
45114.1
52122.5
56139.9
58207.6
59325.1
85369.5
85291.1
86570
87881.5
89521.6
91283.7
93138.9
104551
2441.65
31533.5
44935.3
52248.6
56088.2
58223.8
59316.7
85379.4
85307.7
86566.4
87866.7
89514.5
91277.7
93132.1
104572
2379.64
31290.7
44905.3
52261
56117.5
58240.8
59355.6
85400.3
85317.1
86619
86958.1
89548.1
91331.3
93199.4
104826
2218.85
31648.5
45099.6
52200.7
56232.1
58289.5
59400.5
85491.6
85344.7
85186.8
86971.4
88991.8
91455.8
93328.3
105016
2369.75
32015.2
45307.5
52008.2
55815.4
58322.8
59448.6
85576.9
85452.4
85249.4
85121.2
87810.4
89057.8
92611.8
105498
3029.7
32102.1
44882.4
51579.9
55805.9
58348.9
59498.3
85639.4
85544.5
85348.1
85094.7
85077.1
88960.8
92573.9
105533
2631.27
32274.2
44673.5
51467.8
55840.9
58398.5
59549.5
85679.9
85594.5
85403.6
85113.2
85127.5
89071.1
92749.1
105674
2883.58
32346.2
44750.2
51504.2
55883.5
58438.4
59588.3
85689.7
85607.9
85421.1
85137.5
85139.2
89148.1
92833.5
105745
3119.03
32476.5
44896.9
51555.4
55909.9
58458.8
59603.3
80676.2
80011.1
78629.1
76425.7
76079.5
74984.7
77498.5
2295.13
24369.3
37572.6
45509.7
51017.1
54316.6
55851.6
80637.4
79969.6
78585.8
76383.6
76029.2
74927.1
77442.6
2294.89
24385.2
37527.7
45492.2
50973.4
54271.6
55808.6
80584.4
79915.5
78520.4
76321.2
76002.7
74868.4
77331.4
2293.71
24125.4
37518.7
45434.6
50916.2
54218.5
55752.3
80530.9
79856.2
78444
76430.7
76249.7
74754.7
77120.6
2294.21
24154.7
36422.6
45535.1
50867
54173.8
55695
80486.7
79808.8
78531.3
78446
76758.1
76765
77733.8
2314.46
21962.4
35775
44956.2
50844.3
54148.6
55653.9
80448.7
79901.9
79948.3
78660.1
78048.7
77678.5
77638.1
2295.13
21669.2
35249.9
44791.3
50548.7
54067.4
55625
80436.1
79897.3
79886.5
78718.5
78791.4
77673.4
77589.3
2288
21098.7
34801.5
44324.9
50466.2
54008
55591.1
80416.6
79882.5
79857.1
79551.5
78863.6
77664.1
77577.4
2748.5
20022.3
34307.4
44046.9
50402.9
54015.1
55583.8
80424.1
79885
79849.7
79559.2
78859
77664.7
77593.9
2275.89
19472.9
34264.2
44075
50464.1
54066.3
55640.4
80422.2
79869.6
79869.3
78703.1
78775.1
77666.8
77613
2296.37
20762.8
34819.5
44471.7
50622.2
54170.6
55715.9
80451.6
79775.7
78493.8
78389.7
77986.5
77652.4
77641.4
2303.64
21710.1
35379.3
45015.5
50990.1
54283.1
55771.5
80484.3
79811.1
78407.7
76391.7
76255.4
74868.3
76822.1
2286.13
22792.7
36623.4
45702
51016.4
54288.6
55809
80520.1
79854.5
78466.5
76283.6
75955.9
74788.6
77181.2
2292.44
24201.3
37665.6
45580.7
51042.8
54327.9
55854.6
80550.2
79886.3
78510.1
76319.4
75995.2
74870.6
77348.2
2291.52
24364.4
37607.4
45588.4
51065.8
54354.5
55885.8
80557.9
79897.4
78525.1
76337.6
75977.1
74919.6
77445.1
2293.68
24489.9
37659.8
45591.2
51079.5
54367.8
55896.8
76292
75086.6
72559.1
68141.8
65837.9
58269.2
54008.5
2538.7
2294.1
23373.8
35627.1
43732.2
49334.3
52719.3
54344.5
76252.1
75042.3
72505.7
68076
65766.4
58180.7
53914.6
2304.76
2296.78
23426.1
35545.9
43695.7
49268.8
52664.6
54291.7
76199.2
74987.3
72422.6
67943.2
65662.8
58035.6
53796.3
2313.95
2294.86
19768.4
35503.9
43579
49170.5
52584
54213.4
76152.3
74943
72297.9
67844.5
65545.8
57830.9
53684.9
2737.71
2298.68
20128.3
32903.8
43468.7
49043.7
52495.8
54120.5
76129.8
74902.7
72211.5
70761.6
65269.5
60655
55493.8
3350.28
2291.15
18038.3
31447.7
41632.4
48885
52418.9
54035.2
76119.5
74898.6
74113.9
70595.6
67175.6
61931.9
55540.9
2360.97
2295.37
17538.3
30363.5
41279.3
47643.7
52284.5
53969.7
76103.1
74872.9
74073.6
70450.9
67993.7
61920.5
55581.4
2717.53
2473.82
15916.1
29425.5
40097.2
47489.8
52193.6
53911.2
76084.3
74862
74036.5
71798.4
67964.2
61933.3
55651.5
2633.55
2296.85
12080.4
28355
39391
47428.7
52196.5
53910.1
76095.7
74863.5
74037.2
71807.6
67955.3
61941.6
55754.9
3255.46
2348.96
10956.7
28381.5
39474.9
47541.7
52282.7
53986.2
76102.7
74877.8
74086.5
70468
67985.6
61918.8
55703.4
3410.77
2264.45
16019
29694.8
40423.7
47771.2
52437.3
54101.3
76110
74881.7
72190.6
70698.2
67169.6
61904.6
55563.7
2388.92
2311.45
17950.9
30775.1
41750
49131.9
52611.4
54204.2
76127.3
74918.8
72281.3
67837.3
65437.5
57780.2
53670.4
2294.09
2292.98
19123.2
33099.8
43735.9
49263.4
52679.4
54289
76161.9
74954.2
72396.5
67931.9
65569.4
57956.5
53753.8
2361.63
2295.69
19988.8
35671.4
43767.2
49346.8
52742.1
54361.8
76195.2
74991.2
72466.4
68055.3
65731.7
58147.8
53913.8
2293.22
2295.11
23165.5
35564.2
43799.2
49386.3
52784
54406.4
76206.1
75007.8
72495.1
68103.9
65797.1
58286.5
54097.8
2495.79
2296.35
23643.2
35616.8
43813.5
49411.4
52801.7
54424.9
73510.4
71885.5
68437.2
62338.9
51861
42180.3
17838.3
2290.95
2303.87
25775.1
37596.2
45338.4
50588.8
53750.6
55264.9
73459.8
71827.1
68354
62230.1
51702
41985.3
17672.4
2278.21
2303.28
25617
37402
45223.6
50483.9
53671.2
55193.2
73387.6
71747.2
68235.9
62080.3
51442.1
41548
17547.4
2292.05
2301.49
20713.7
37013
44994.3
50310
53538.9
55078.6
73312.2
71679.5
68076.9
61901.5
55822
41129.6
17505.9
2282
2299.81
20410
33072.2
44685.3
50071.6
53370.1
54934
73262.2
71627
68000.2
64440.5
55735
44900.2
23885
2283.67
2291.89
17402.5
30982.6
41714.9
49799.3
53216.1
54792.2
73237.9
71579.8
69631.6
64373
57915.9
46769.4
24719.2
2278.02
2295.14
16702.8
29413.4
41209.6
47694.4
53048.3
54681.7
73203.4
71529.3
69633.8
64274.4
58857.3
46836.9
24831.1
2285.91
2232.95
14388.8
28176.9
39440.3
47462.7
52940.6
54605.6
73183.4
71513.5
69609.5
65623.2
58769
46826
24947.9
2346.93
2257.76
9234.06
26941.3
38451.5
47408.9
52950.4
54615.6
73201.6
71523.8
69608.7
65616.1
58732.4
46780.5
25203.2
2294.45
2286.98
10244.3
27314.1
38649.1
47579.4
53073
54710.7
73233
71570.4
69647.2
64263.6
58780.6
46697
24925.4
2291.3
2298.74
16031.3
29082.1
40050.1
47898.6
53274.7
54862.8
73262.2
71623.3
67994.5
64452.9
57844.3
46638.8
24533.7
2390.32
3474.87
18139.1
30382.9
42007.4
50168.8
53483.1
55017.8
73313.4
71682.5
68087.2
61915.8
55783.2
41151.1
19048.8
2292.19
2298.35
19073.9
33494.3
45105.8
50401.5
53627.8
55159.3
73381
71746.9
68245.7
62107
51484.8
41423.2
17512
2281.37
2301.71
20710
37292.7
45278.5
50560.2
53754.7
55276.8
73437
71812.7
68356.1
62258.2
51755.8
41863.9
17664.7
2258.47
2301.43
25331.5
37452.9
45356.4
50643.8
53832.3
55349.1
73460.3
71845.4
68416.9
62355.4
51917.5
42188.5
17837.1
2268.01
2302.38
25740.3
37478.6
45404.5
50689
53864.3
55379.1
72978.2
71285.7
67667.4
61426.3
50569.5
39129.7
4980.13
2300.81
8920.93
32854.4
43273.2
50014.8
54474.1
57100.2
58350.2
72911.6
71207.6
67546.2
61228.5
50389.7
38509.3
4719.95
2230.88
6943.51
32347.6
42909.1
49808
54322.3
56994
58259.7
72814
71095.7
67372.5
60957.3
50506.7
37068.6
6941.77
2311.52
2307.95
24713.6
42349.1
49457.2
54063.4
56814.4
58112.1
72709.2
70996.2
67215.4
60779.3
52636.7
36063
8223.88
2288.5
2300.33
24053.2
37187.2
49003.1
53717.2
56580.6
57925.7
72635.3
70937.9
67194.1
62217.9
52324
38637.3
17191.9
2286.1
2299.22
19688.9
34218.6
45214.6
53407.1
56376.3
57747
72598.4
70909.6
68033.2
62085.3
53814
39974.5
17583.3
2279.18
2632.28
18584
32107.6
44544
50688.1
56211.5
57614.1
72552.3
70849.9
68002
61993.5
54454
40224.5
20187.7
3984.05
2296.16
16064.7
30844.1
42300.9
50387.3
56101.3
57532
72536.2
70830.7
67987.6
62908.2
54309.6
39998.9
18587.6
2291.71
2304.41
12798.6
29972.1
41184.6
50349.6
56125.2
57553.7
72559.1
70852.3
67996.1
62888.4
54222.6
39669.6
17451.4
2312.99
2250.36
14844.1
30706.9
41514.6
50570.9
56276.2
57666.1
72610.2
70918.3
68024.9
61992.4
54276.7
39539.1
17044.4
2232.16
22567.2
20393.6
32535.2
43220.2
50974
56505.4
57843.5
72660.6
70961.7
67221.7
62199.6
53687
39611.8
17070.8
2255.65
2482.01
21473.8
33782.4
45717.4
53902.2
56718
58028.4
72741.8
71034.7
67267.8
60844.4
52481.7
36410.7
16539.2
2294.88
2298.46
22182.9
37769.1
49626.9
54171.5
56913.1
58207.4
72842.2
71133.7
67428.2
61041.1
50604.4
36512.2
6812.78
2272.6
2305.41
24688.4
42787.4
49865.7
54399.8
57092.5
58361.6
72925.1
71232.8
67592.4
61309.9
50510.5
38565.6
4636.83
2234.78
4767.7
32139
42995.9
50003.1
54544.5
57205.3
58459.1
72965
71286
67690.4
61499.7
50700.2
39239.6
4602.75
2260.82
2319.76
31837.6
42962
50078.4
54612.3
57254.6
58503.2
74933.9
73647.6
70917
66516.4
57057.5
47452.5
2979.6
2314.14
29989.6
48375.6
53172.1
57827.9
60691.1
62359.3
63172.3
74851.3
73545.5
70755.3
66182.2
56651.4
46486
2330.86
2318.47
28954.6
47534.7
52739.6
57542
60502.8
62235.9
63072.9
74728.7
73395.8
70521.2
65628
58121.8
43449.5
11904.9
2407.35
14734.7
36595.2
52235.5
57056.9
60179.3
62031.2
62905
74596.7
73236.6
70252.2
65240.6
57127.8
41804.3
13417.4
2275.32
2500.6
33782.9
45903
56507.5
59766.8
61767.6
62700.5
74499.7
73128.5
70147
65003.8
56169.1
41956.4
19022.7
2274.93
2300.69
26413.4
41987
52086.1
59452.7
61545.3
62515.8
74446.2
73098.7
69949.8
64606.5
56233.1
42148.5
19251.5
2299.01
4721.95
24439.7
39097.5
51319.4
56306.1
61429.9
62394
74388.8
73025.7
69812.2
64424.2
56251.4
42051.8
21285.9
6884.53
8852.01
21817.4
37682.4
48730.1
56020.6
61342.5
62319.9
74378.3
73008.4
69780.9
64629.2
56020.9
41659.6
19664.7
2253.48
2295.04
19405
37052.3
47519
56024.5
61382.7
62353.2
74408.2
73043.7
69810.5
64626.5
55952.8
41338.3
18183.3
2277.6
2297.87
21686.2
38044.6
47959.9
56275.2
61542.9
62474.4
74481.6
73137
69888.9
64522.8
56129.2
41394.4
18028.7
2298.82
2393.47
26476.5
39949.1
49907
56698
61773.3
62659.3
74556.9
73193.1
70234.4
64865.5
56272.8
41902.1
18296.2
2297.98
9823.01
28214.8
41390.7
52830.3
60057.9
61939.4
62832.8
74666
73320.1
70366.5
65399.7
56731.7
41728
18210
2296.21
2312.24
30442.3
46653.5
57296.5
60311.1
62154.2
63021.2
74795.2
73478.6
70636.6
65800
58377.7
42877.2
12984.5
2318.39
12839.2
35920.7
52976.5
57634.2
60603.4
62363.7
63198.1
74902.7
73614
70855
66324.8
56903.9
46720.2
2352.05
2320.51
29441.7
48329.9
53143.9
57902.9
60816.5
62500.3
63310.7
74958.2
73691.2
70995.5
66653
57491.6
47756
7710.97
2320.18
29237.1
48762.3
53273.5
58033.6
60914
62563.7
63363.3
78913.9
78394.8
77360.8
76952.9
74699.4
83028
117284
96577.9
84898.6
72803
67918.7
68430.2
68598.5
68920.1
69147.4
78820
78266.1
77158.6
76418.1
73847.4
80693.9
110353
80342.2
77614.2
70652.1
67172.7
67997.9
68379.8
68787.9
69044.2
78675.4
78065.5
76845.7
75007.1
73378.1
65311.7
60173.8
42130.2
44412.5
58401
66113
67184.1
68002.1
68574.2
68879.9
78517.5
77845.8
76421.4
74320.5
68279.4
59929.8
39702.2
12484.3
21519.2
54311.8
60107.3
66482.7
67557
68319.9
68679.9
78398.7
77681.3
76199.1
72072.4
66922.9
56018.4
32115.6
2300.39
11575.2
42710.9
55423.8
62281
67240.2
68104
68509
78335.5
77629.4
74802.3
71526
65218.9
53787.4
29862.3
2280.21
7967.72
38109.4
51748.1
61545
64210.5
67991.8
68422.1
78271.2
77550.6
74561.8
71310.6
64415.2
52799.4
27865.9
2237.6
2326.8
33399.7
50006.2
58738.3
63977.4
67926.6
68363.6
78266
77542.9
74522.4
70632.2
64115.9
52416.3
28288.1
2314.24
2287.3
31302.6
49532.5
57478.5
64072.1
67976
68403.5
78303.9
77588
74569.9
70669
64129.8
52442.6
29894.7
2302.09
2317.43
35784.1
50864.8
57977.8
64316.8
68114.6
68516.4
78396.6
77702.2
74705
71532.3
64514.2
53001.9
28592.1
2291.71
14289.7
40865.4
52927.9
60064.4
64671.4
68314.6
68689.5
78490
77792
76363.2
71877.2
65616.6
54405.5
31452.7
4486.33
11781.1
43566.6
54652.4
63192.1
67846
68515.3
68824.2
78623.4
77976.4
76607.7
74602.5
67843.1
59327.2
33715
7518.09
12416.2
49235.9
61045.5
67327.5
68142
68721.7
69011.4
78778
78192.9
77026.3
75284.3
73841.9
62613.4
47410.6
29827.2
41803.3
58194.3
67165.9
67893.4
68485.1
68931.8
69182.2
78904.4
78372.5
77312.4
76612.6
74247.4
81231.7
111987
83635.4
80766
72192
67962.6
68554.1
68778.6
69088.5
69305
78969.3
78472.2
77486.6
77064.2
75069.9
82822.1
113275
102025
88064.4
74230.1
68571.1
68864
68925.1
69164.7
69362.5
83832
84119.7
84616.1
87465.5
91118.2
96793.6
122702
122281
110665
90329
82299.5
79019.3
76713.1
75818.1
75471.6
83751.4
84002.3
84501.5
87186.7
90977.5
97703.1
129094
133954
108567
89742.7
81710.6
78627.3
76527.6
75698.9
75379.9
83613
83764.2
84267.4
85589.3
89575.4
92423.5
116829
145020
111065
87246.6
80443.6
77720.6
76191.2
75498.9
75233
83458
83537.9
83806.3
84749.6
83860
89175.2
107251
140886
103948
84119
77462.5
76889.9
75789.9
75280.9
75064.6
83338.6
83361.6
83455.7
81679.9
82109.3
81190.2
81189.4
89071
76358.8
74590.1
73888.2
74150.3
75439
75087.1
74912.5
83284.7
83206.1
81505.1
81127.4
79226.2
76800.8
70455.5
9070.11
39331.9
67990.4
70568
73528.2
73258.5
74923.1
74840.5
83226.5
83122.8
81325.4
80834.3
77681.4
75409
66823.4
2849.42
2419.38
61674.8
68919.5
71491.9
73136.8
74848.4
74790.1
83230.4
83128.9
81297.8
79545.2
77403.2
74585.4
65590.8
5245.97
4408.69
61138.2
68655.4
70482.9
73168.5
74888
74826.6
83270.7
83174.3
81355.2
79592.4
77419.8
74361.1
61163.1
2219.45
44005.9
66097
69901.2
70950.6
73370.7
74994.1
74913.5
83367.9
83305.9
81495.7
81075
77843.4
75666.2
67551.6
22626
59319.5
71071.2
71735.6
72609.8
73683
75174.6
75058
83457.2
83505.6
83664.8
81624.6
79767.8
77880.7
74137.7
31653.1
68992.4
75105.9
73525.8
74786.2
75921.8
75424.7
75180.9
83592.1
83703
84040
85098
83680.7
87753.8
92635.9
119546
91833
81858.8
78317.9
77585
76281.7
75620.2
75353.3
83742.4
83924.3
84496.5
85928.1
90210
92504
117540
151760
113664
88327.5
81433.9
78387.2
76633.9
75822.3
75505.8
83858.5
84130.5
84693.3
87397.3
91334.2
98116.9
127939
134605
110070
90657.2
82411.4
79163.4
76905.2
75978.5
75620.1
83908
84211
84774.8
87561.6
91335.8
97304.4
122320
121025
110414
90957
82856.5
79467.8
77034.2
76048.7
75669.9
88382.1
89075.8
90040.6
92873.3
96960.8
96823.4
103572
109351
105313
94753.1
90226.8
86272.1
83296.6
81913.2
81241.3
88362.4
89049.4
90146.9
93197
97786.3
99028.3
107446
114303
105245
95874
90362
86246.8
83260.2
81854.9
81188.6
88304.2
88898.6
90256.5
92790.5
97421.1
100609
107844
122061
107290
97765.6
90031.8
85894.5
83149.4
81733
81099.5
88221.1
88781.4
90060.6
92815
94517.8
102464
115968
135062
117612
99173.5
90000
85594.6
82969.7
81603.8
80995.5
88135.6
88649.2
89806.8
90381.1
94220.2
100488
116666
151009
129492
101272
89376.3
84421.3
82700.2
81451.7
80879.1
88079
88428
88301.8
89922.8
92151.3
98656.5
117989
171668
136691
100855
88591.4
84156.3
81599.2
81243.9
80811.2
88041.4
88357.1
88243.8
89722.8
91131.8
98514.3
119763
187830
136073
99749.2
88126.1
83439.3
81544.1
81183.7
80772.4
88057.7
88369.3
88237.4
88730.4
90951
98098.6
119303
168120
133713
99572.6
88125.7
83177.3
81521.8
81216.5
80806.8
88092.9
88415.6
88297.2
88764.6
90943.8
97724.1
116651
170585
130753
100249
88570.5
83395.5
81647.7
81298.4
80863.7
88177.3
88542.7
88404
89928.6
91216.5
98169.2
116581
170683
135038
101689
89225
83994.8
81863.2
81432.6
80964.1
88271.2
88813.6
90055.7
90454.4
92564.7
99145.8
118898
174235
134310
102627
89835.3
84874.9
83057.4
81687.5
81081.5
88369.9
88962.8
90318.8
93183.8
94903
103711
119051
153003
128580
101886
90551.2
86049.2
83302.8
81836.3
81203.1
88446
89070.4
90503.1
93111.9
97950.8
102492
112669
128779
110945
99408.5
90558.2
86333.3
83450
81963.8
81297
88479.7
89181.6
90355.4
93408.9
98116.2
99528.6
107746
114407
105429
96074.2
90667.4
86565.2
83498.2
82048
81357.6
88469.4
89171.1
90233.4
93050.5
97390.6
97698.9
105687
109567
104218
94807.2
90355.6
86538.3
83482.5
82066.1
81372.4
91800.4
92465.1
93208.9
94639.4
97580
97112.4
98671.4
103000
98424.7
94721
92961.9
90012
87753.4
86549.3
85858.1
91855.1
92540.1
93433.3
95187
98347.2
98421.2
99707.1
102589
99443.5
96141.8