/*--------------------------------*- C++ -*----------------------------------*\
| =========                 |                                                 |
| \\      /  F ield         | OpenFOAM: The Open Source CFD Toolbox           |
|  \\    /   O peration     | Version:  v2012                                 |
|   \\  /    A nd           | Website:  www.openfoam.com                      |
|    \\/     M anipulation  |                                                 |
\*---------------------------------------------------------------------------*/
FoamFile
{
    version     2.0;
    format      ascii;
    class       volScalarField;
    location    "0.041";
    object      p_rgh;
}
// * * * * * * * * * * * * * * * * * * * * * * * * * * * * * * * * * * * * * //

dimensions      [1 -1 -2 0 0 0 0];


internalField   nonuniform List<scalar> 
449343
(
102618
102746
102957
103153
103230
102949
102134
100709
98728.2
96402.6
94027
91878.1
90149.8
88953.3
88343.9
102620
102748
102958
103155
103230
102947
102131
100706
98725.7
96402
94027.8
91879
90150.1
88952.8
88343.1
102623
102751
102962
103157
103230
102943
102124
100698
98720.3
96400.9
94029.9
91881.6
90151.3
88952.5
88342
102628
102756
102967
103161
103231
102936
102113
100685
98711.5
96398.4
94033.6
91886.6
90154.4
88953.4
88341.5
102634
102762
102973
103166
103231
102929
102101
100671
98702.2
96396.8
94040.2
91894.9
90160.2
88956.2
88342.8
102641
102769
102980
103171
103233
102924
102091
100662
98698.4
96401.2
94050.9
91906.6
90168.8
88961.6
88346.4
102647
102776
102987
103177
103236
102923
102089
100660
98700.5
96409.9
94062.2
91920.2
90179.4
88969.3
88352.7
102653
102782
102993
103183
103240
102927
102088
100658
98700.3
96417.6
94073
91931.4
90189.4
88978.3
88361.2
102657
102786
102997
103188
103247
102935
102101
100673
98715.1
96426.8
94080.3
91938.8
90198.1
88988.2
88371.6
102660
102789
103000
103192
103255
102948
102118
100691
98729.7
96434.5
94085.5
91942.3
90205.3
88998.6
88383.5
102662
102791
103002
103196
103264
102964
102139
100714
98748.2
96445.5
94090.8
91946.9
90213.1
89009.7
88396.4
102663
102792
103004
103200
103272
102981
102162
100739
98769
96459.6
94097.7
91952.6
90221.5
89021.1
88409.5
102664
102793
103005
103203
103279
102996
102181
100760
98787.7
96472.4
94104.7
91958.6
90229.6
89031.5
88421.2
102665
102794
103006
103205
103284
103006
102194
100775
98800.2
96481.1
94110.3
91963.9
90236.2
89039.6
88430.1
102666
102794
103007
103206
103286
103010
102201
100782
98806.2
96485.5
94113.5
91967
90240
89044
88435
102476
102651
102963
103313
103565
103508
102828
101340
99104.5
96438.3
93762.4
91413.4
89574.3
88324
87693.8
102477
102653
102965
103315
103566
103506
102824
101335
99101.4
96437.6
93763.7
91414.2
89573.8
88322.6
87691.8
102481
102656
102969
103320
103568
103502
102815
101325
99095.8
96440
93768.7
91417.4
89573.9
88320.6
87688.9
102485
102662
102976
103326
103570
103493
102797
101302
99081
96437.9
93777
91424.2
89575.9
88319.1
87686
102492
102669
102984
103333
103574
103477
102776
101279
99051.6
96438.1
93791.6
91436.3
89581.1
88319.7
87684.6
102499
102678
102994
103344
103580
103471
102760
101265
99050.6
96445.9
93811.2
91453.6
89590.3
88323.3
87686
102506
102686
103004
103353
103583
103476
102758
101261
99052.4
96463.4
93842.9
91475.7
89602.1
88330.5
87691
102511
102692
103010
103360
103588
103478
102753
101211
99045.8
96469.3
93856.3
91488.8
89612.4
88339.6
87699.4
102516
102696
103014
103364
103594
103488
102771
101276
99068.6
96481.7
93862.7
91495.7
89621.9
88350.3
87710.9
102518
102698
103015
103366
103603
103497
102788
101296
99083
96481
93847.4
91491
89628.7
88362.1
87724.9
102520
102698
103014
103365
103607
103513
102816
101324
99101.3
96490
93845.4
91491.3
89636.9
88375.9
87740.9
102521
102699
103014
103366
103613
103539
102848
101358
99141.7
96503
93845
91494.1
89646.6
88390.2
87757.2
102523
102700
103014
103367
103618
103556
102875
101391
99166.9
96515.2
93848
91498.9
89656.5
88403.5
87772
102524
102700
103014
103367
103621
103566
102890
101408
99180.6
96522.4
93851.7
91504.2
89664.7
88413.8
87783.2
102525
102701
103014
103368
103622
103571
102898
101416
99187.4
96526.7
93854.7
91507.7
89669.4
88419.4
87789.2
102109
102392
102932
103645
104364
104871
104600
102948
100035
96475.6
93062.6
90259.3
88179.5
86815
86141.2
102110
102394
102935
103649
104367
104871
104593
102942
100031
96476.5
93064.9
90259.2
88176.9
86811.1
86136.9
102113
102398
102941
103658
104376
104870
104577
102929
100023
96486.1
93076.6
90262.6
88173.5
86804.6
86129.3
102117
102405
102951
103671
104387
104858
104534
102898
99978.3
96489.4
93101.1
90273.4
88171.5
86797.2
86120.2
102124
102414
102966
103689
104399
104826
104446
102796
99896.8
96516.8
93135.6
90291.5
88173.7
86791.4
86112
102131
102425
102984
103710
104424
104804
104409
102776
99891.4
96544
93188.9
90320.4
88181
86789.8
86107.3
102139
102435
102997
103731
104421
104816
104398
102765
99889.8
96567.1
93314.3
90360.8
88196.6
86794.2
86108.7
102145
102443
103005
103742
104435
104832
104422
102789
99885
96573.2
93324.8
90375.2
88207.5
86803.6
86116.7
102149
102446
103007
103742
104434
104829
104414
102783
99909.8
96587.7
93337.6
90383.4
88218.2
86816.1
86130.7
102152
102447
103006
103734
104448
104831
104438
102808
99929.2
96583.6
93229.5
90362.2
88224
86833
86150.5
102154
102444
102997
103721
104434
104863
104488
102844
99951.2
96574.5
93196.9
90353.4
88236.2
86854
86174.5
102156
102444
102992
103714
104433
104907
104590
102961
100047
96564.1
93178.8
90352.6
88250.8
86876.4
86199.3
102158
102444
102988
103707
104429
104928
104642
103002
100103
96571.5
93166.3
90354.7
88266.1
86897.1
86221.6
102160
102445
102987
103704
104426
104935
104666
103023
100121
96573.7
93166.3
90361.4
88279
86912.8
86238.3
102161
102445
102987
103703
104426
104938
104676
103033
100130
96577.7
93168.9
90366.7
88286.6
86921.5
86247.3
101388
101830
102712
104008
105588
107166
108057
106096
101694
96263
91600.1
88165.1
85800.6
84321.1
83611.9
101388
101831
102715
104013
105595
107170
108042
106087
101683
96263.8
91601.4
88160.7
85792.9
84312.6
83603.3
101389
101834
102723
104029
105616
107183
108023
106084
101696
96298.3
91619.9
88157.6
85780
84297.2
83587.5
101391
101840
102738
104059
105647
107206
107838
106072
101577
96384.9
91680.2
88163.7
85765
84277.3
83566.9
101395
101849
102760
104092
105693
107151
107050
105751
102364
96532.8
91765.1
88188.2
85752.1
84256.4
83545.2
101402
101863
102796
104169
105782
106362
106925
105712
102394
97785.7
91894.9
88228.5
85748.5
84239
83527.7
101408
101876
102820
104201
105132
106399
106890
105670
102356
97809.3
93216.2
88270.9
85751
84234.5
83520.6
101414
101886
102835
104217
105140
106425
106918
105579
102356
97824
93206.9
88283.6
85770.1
84246.3
83526.6
101419
101887
102829
104211
105141
106421
106905
105665
102371
97832.6
93224.1
88293.2
85774.2
84259.7
83546.3
101425
101887
102822
104197
105807
106391
106923
105711
102398
97839.4
91949.7
88281.2
85800
84289.9
83578.3
101428
101882
102792
104124
105728
107189
107065
105780
102440
96599.9
91837.9
88262
85825.8
84329.6
83618.1
101433
101883
102783
104107
105699
107259
107903
106146
101663
96475.4
91774.4
88258
85858.4
84369.9
83658.9
101438
101884
102774
104083
105674
107245
108095
106168
101789
96400.5
91728.3
88267.5
85889.1
84405.2
83694.7
101443
101886
102772
104074
105660
107238
108125
106182
101794
96384.5
91725.1
88283.1
85913.6
84431.6
83721.2
101445
101888
102772
104071
105657
107238
108144
106197
101809
96391.4
91731.7
88295.3
85927.6
84445.8
83735.4
100113
100727
102005
104040
106896
110477
114313
111593
104208
95060.6
88675.5
84729.4
82243.1
80775.9
80101.6
100110
100725
102006
104045
106907
110490
114295
111589
104208
95066.5
88670.3
84713.3
82225.3
80759.7
80086.5
100105
100724
102011
104065
106951
110541
114293
111587
104244
95100.3
88675.5
84686.2
82192.4
80729.4
80058.2
100100
100723
102026
104131
107109
110687
111955
111649
105827
95521.4
88809.6
84672
82147.3
80687.6
80019.5
100095
100724
102050
104190
107184
109181
111900
111543
105871
97793.2
88928.2
84647.1
82093.6
80636.7
79975.4
100094
100739
102111
104394
106318
109357
111899
111385
105779
98004.7
91155.4
84701.9
82030.7
80593.4
79935.9
100093
100738
102119
103813
106392
109448
110964
110701
106127
99007.8
91329.6
86561.2
81943.3
80548.8
79909.2
100101
100754
102192
103827
106442
109490
110984
110679
106147
99047.3
91400.2
86620.2
82062.9
80553.6
79916.4
100105
100749
102125
103818
106433
109487
110971
110698
106139
99060
91403.5
86627.2
81970.8
80579.8
79940.1
100121
100768
102141
104424
106341
109390
111051
110733
106158
98102.5
91283.3
84768.7
82092
80654.6
79996.8
100131
100759
102086
104226
107222
109258
111906
111450
105823
97973.6
89022.2
84737.3
82182.9
80724.6
80062.7
100147
100772
102076
104184
107166
110748
111976
111687
105983
95642.1
88930.4
84790.3
82261
80798.7
80129.4
100161
100780
102067
104123
107012
110608
114372
111687
104360
95232.4
88812.5
84821.7
82324.7
80858.9
80186
100171
100788
102070
104113
106979
110563
114389
111686
104345
95225.1
88829.3
84866.2
82372.3
80902.5
80227.1
100177
100793
102072
104109
106970
110554
114413
111707
104358
95233.3
88845.7
84891.3
82397.8
80925.6
80248.8
98032
98771
100368
103108
107481
114368
119958
125377
111797
90594.3
83099.6
79416.4
77261.9
76115.4
75626.7
98023.7
98763.3
100362
103109
107496
114383
119956
125355
111758
90552.9
83063.3
79374.3
77228.1
76089.1
75603.9
98008
98748.7
100351
103102
107513
114431
119941
125308
111661
90444.1
82968.5
79277
77159.8
76037.7
75559.8
97987.7
98734.4
100353
103161
107895
112239
120005
125353
111557
94868
82982.3
79101.9
77058.9
75965.5
75498
97960.9
98704.1
100327
103228
106668
112509
120273
122879
112868
95492.4
86186.4
78893.1
76864.2
75859.6
75422.8
97943.7
98681.5
100384
102810
106771
111556
118475
121756
112804
97752.2
86274.1
81257.7
76678.2
75744.9
75349.8
97924.5
98650.1
100377
102852
106908
111592
117544
121706
113269
98685.8
87987.2
81267.9
76528.7
75652.1
75297.1
97921.7
98635.7
100380
102919
106269
111082
117555
121668
113231
98729.9
87976.8
81269.1
78487.7
75623.3
75299.2
97938.2
98664.7
100393
102898
106268
111566
117561
121679
113252
98758.1
88000.8
81256.3
76576.8
75693.3
75335.7
97974.1
98712.2
100414
102818
106900
111620
117543
121742
113329
98764
88088.7
81350.4
76749.9
75819.8
75424.5
98002.4
98745.1
100368
103272
106704
112595
118408
122789
112888
97715
86385.2
79010
76976.7
75967.3
75528.7
98042.1
98790.1
100411
103218
107953
112327
120091
125411
111637
95135.5
83137.7
79251.2
77196.2
76100
75630.5
98071.8
98812.6
100415
103169
107582
114503
120004
125369
111754
90628.5
83149
79448.7
77322.8
76194.6
75713.5
98094.8
98835.4
100437
103186
107577
114467
120024
125440
111885
90775.1
83270.2
79566.3
77409
76262
75772.7
98106.5
98846.4
100445
103187
107564
114455
120057
125502
111984
90859
83329.4
79622.5
77452.7
76296.5
75803.3
94924.5
95640.1
97239.4
100153
105128
111948
128410
158383
116344
83230.8
72879.8
71486
70689.7
70417.1
70336.6
94908.7
95623.7
97220.5
100132
105113
111937
128381
158346
116180
83110
72778.8
71404.9
70639.6
70381.6
70306.9
94875.3
95582.6
97169.2
100053
104995
111902
128280
158248
115877
82899.3
72571.1
71240.9
70536.5
70308.9
70249.3
94829.4
95530.5
97104.6
99834.2
104353
112239
128258
158058
115440
82793.4
75812.7
70806.6
70365.1
70197.9
70167
94762.4
95437.2
96915.2
99881.6
104362
111333
125283
157845
116239
86539.4
75357.2
72854.3
70012
70044.3
70062.2
94696.5
95296.6
97362.8
99933.3
104091
111282
123829
152763
120937
88416
77477.9
72610.1
71615.4
69873.5
69963.5
94663.1
95255.3
97356.4
99924.6
104107
110836
123691
152586
120865
88354.5
78662.7
74058
71476.9
69824.6
69915.5
94640.5
95232.1
97413.9
99948.3
104103
110799
123624
152496
120914
88361.3
78622.2
74015.3
71471.9
69838.9
69901.8
94678.3
95270.7
97380.8
99976.5
104131
110807
123625
152487
120972
88402.8
78658.5
74043.6
71479.6
69872
69962.8
94732.5
95333.2
97402.4
99931
104146
110854
123704
152582
120980
88467
78749.7
74157.5
71617.5
69967.4
70056.5
94810.4
95485
96964
99921.9
104395
111360
123870
152797
121094
88580.4
77749.1
72854.3
70161.3
70180.1
70192.1
94892.7
95593.6
97169.2
99896
104293
112201
125358
157939
115683
87033.3
75831.2
70983.5
70537.1
70363
70327.2
94950.5
95659
97245.6
100134
105075
111958
128328
158182
115840
83060.8
72810.7
71453.7
70735.5
70498.6
70434
94992.4
95708
97307.1
100221
105204
112029
128422
158355
116159
83311.1
73039.3
71644.2
70860.5
70589.7
70508.8
95012.5
95729.2
97330
100245
105223
112033
128487
158458
116534
83575.5
73192.6
71748
70923.6
70635
70547.3
90725
91161.4
92132.8
93914.4
96844.2
103508
110848
108281
26621.9
53374.8
58217.8
61131.6
62973.5
64140.1
64672.8
90702.7
91136
92102.1
93872.4
96807.5
103467
110816
108199
26610.4
53199.3
58067.5
61047.6
62926.4
64102.9
64642.1
90654.3
91074.2
92027.3
93797.3
96685.1
103356
110714
108118
24058
52910.3
57850.2
60934.4
62839.8
64035.3
64585.9
90582.6
90972.5
91896.9
93500.9
97925.3
102925
110444
107978
23491
52792.8
59127.2
60873.6
62725.8
63935.5
64510.8
90482.1
90834.4
91668.2
94595.9
97656.5
103287
111176
107744
23780.4
55892.4
60453.5
62018.9
62670.6
63843.6
64423.4
90367.9
90700.2
92763.6
94465.3
98090.2
103482
110926
107361
23878.8
56125.2
61265.5
62004
63624.7
63834.2
64357.9
90331.9
90653.2
92733.6
94380.4
98316.1
103386
110764
107142
24249.9
56148.4
61291.1
62825.6
63535.8
63833.7
64344
90316.3
90625.5
92703.8
95002.9
98304
103339
110679
106973
24922.6
56124.9
61271
63270
63582.1
63873.3
64346.6
90349.4
90670.3
92717.4
95004.6
98314
103347
110678
106951
25029.9
56159.7
61294
63297.6
63587.9
63891.3
64400.8
90408.4
90738.4
92778.2
94427.4
98341.6
103413
110773
107097
25344.8
56291.8
61373.2
62919.2
63647.6
63942
64469.3
90539.8
90894.3
91728.4
94570.5
98161.9
103530
110961
107353
24515.1
56332.3
61388.8
62098.4
62840.3
64010
64582.5
90659.2
91048.6
91971.4
93579.3
97887.9
102662
110187
107805
24055
54699.7
59166.2
61098.1
62939.7
64135.5
64703.7
90744.1
91165.1
92119.4
93886.7
96776.5
103206
110598
108015
23776.9
53061.1
58132.8
61195.8
63079.7
64261.5
64805.7
90803.2
91237.9
92206.7
93981.1
96919.4
103522
110826
108174
24441.4
53449
58410.2
61337.4
63188.5
64349.3
64880.4
90830.7
91268.7
92243.1
94028.9
96962.6
103602
110917
108254
26129.3
53987
58644.2
61456.5
63252.8
64396.8
64920.5
85698.6
85614.1
85421.9
85129.6
85119.5
89141.3
92840.7
105935
2182.44
31998.9
44602.7
51334.6
55733.3
58303.1
59456.2
85675.6
85587.7
85392.1
85094.8
85098.9
89098.9
92804.1
105756
3397.2
32004.7
44512.6
51300.3
55701.8
58272.9
59430.6
85628.8
85531.6
85329.8
85067.6
85049.7
88990.4
92699.5
105660
2222.48
32026.2
44451.8
51268
55660
58232.3
59389.9
85563.2
85437.7
85231.7
85108
87765.9
88917.9
92467.2
105512
2257.38
32107.4
44562.7
51390.4
55629.1
58190.3
59346.3
85481.1
85332.2
85178.2
87054.7
87763.3
90690.9
93479.6
105452
2248.42
31774.2
45039.6
51975.6
55662.6
58183.6
59316.2
85394.5
85314.5
86715.4
86958
88946.2
91428
93313.7
105018
2517.73
31963.2
45219.2
51858.6
56177.5
58190.5
59303.9
85376.8
85305.9
86609.8
86920.5
89553.4
91320.4
93190.6
104811
2299.06
31852.7
45085.8
52095.6
56115.3
58188
59305.4
85369.5
85291.1
86565.1
87874.1
89513
91275.1
93130.3
104542
2433.15
31524.9
44926.7
52240
56083.3
58223.8
59316.7
85399.1
85327.3
86581.1
87878.9
89525.6
91288.7
93143.2
104582
2390.56
31301.7
44916.4
52272
56132.3
58260.4
59375.3
85439.6
85356.3
86653.3
86992.4
89578.8
91362
93230.1
104856
2247.58
31679.1
45130.2
52232.6
56266.4
58328.7
59439.7
85550.5
85403.6
85245.6
87025.4
89043.3
91506
93378.6
105065
2419.72
32065.5
45357.8
52062.2
55874.3
58381.7
59507.5
85655.4
85530.8
85327.9
85199.7
87884
89131.4
92683
105567
3099.58
32173.3
44955.9
51658.4
55884.4
58427.3
59576.8
85737.5
85642.6
85446.2
85192.8
85175.2
89054
92664.7
105622
2720.49
32367.4
44771.6
51565.9
55939
58496.6
59647.6
85797.7
85712.2
85521.3
85230.9
85245.3
89183.9
92859.4
105782
2992.48
32459
44867.9
51621.9
56001.2
58556.1
59706
85827
85745.2
85558.5
85274.9
85276.5
89280.6
92963.4
105873
3247.51
32608.9
45034.3
51692.7
56047.3
58596.1
59740.6
80538.9
79873.8
78491.8
76288.3
75937.2
74842.5
77353.8
2191.03
24227.1
37435.2
45372.4
50879.8
54179.3
55714.3
80519.6
79851.9
78468.1
76265.9
75906.6
74804.5
77317.5
2186.41
24262.6
37410
45374.5
50855.6
54153.8
55690.9
80486.3
79817.4
78422.3
76223.1
75899.7
74765.4
77226
2220.22
24022.4
37420.6
45336.5
50818.1
54120.4
55654.2
80452.4
79777.7
78365.5
76352.2
76166.3
74671.4
77034.8
2230.05
24071.4
36339.2
45456.6
50788.5
54095.3
55616.5
80427.8
79749.9
78472.4
78382.3
76694.3
76698.8
77666.4
2273.4
21895
35708.8
44892.5
50785.4
54089.7
55595
80409.5
79862.6
79904.2
78615.9
78002.1
77630.6
77590.3
2270.86
21621.3
35202.1
44747.1
50504.6
54028.2
55585.7
80416.5
79877.7
79862
78693.9
78763.2
77645.2
77561.1
2266.47
21070.5
34773.3
44297.9
50441.7
53988.4
55571.5
80416.6
79882.5
79852.2
79544.1
78855.1
77655.5
77568.8
2744.62
20013.7
34298.8
44038.3
50398
54015.1
55583.8
80443.7
79904.6
79864.4
79571.5
78870.1
77675.7
77604.9
2277.11
19483.9
34275.2
44086.1
50478.8
54085.9
55660.1
80461.4
79908.9
79903.6
78737.4
78805.8
77697.5
77643.6
2305.33
20793.4
34850.2
44503.6
50656.5
54209.8
55755.1
80510.5
79834.6
78552.7
78443.6
78038
77702.7
77691.7
2344.11
21760.3
35429.6
45069.5
51049
54342
55830.4
80562.7
79889.6
78486.1
76470.2
76329
74941.9
76893.2
2316.58
22863.9
36696.9
45780.5
51094.9
54367.1
55887.5
80618.2
79952.6
78564.6
76381.7
76049.1
74881.8
77272
2358.24
24294.5
37763.7
45678.8
51140.9
54426
55952.7
80667.9
80004
78627.8
76437.1
76108
74983.4
77458.5
2366.67
24477.3
37725.1
45706.1
51183.5
54472.2
56003.5
80695.2
80034.7
78662.4
76475
76109.5
75052.1
77575.1
2399.72
24622.4
37797.2
45728.6
51216.8
54505.1
56034.2
76154.7
74949.3
72421.7
68004.4
65695.7
58127
53863.8
2442.17
2180.59
23236.4
35489.8
43594.8
49197
52582
54207.2
76134.3
74924.5
72387.9
67958.3
65643.8
58058.1
53789.5
2303.28
2191.77
23308.3
35428.2
43578
49151.1
52546.9
54174
76101.1
74889.2
72324.5
67845.1
65559.8
57932.6
53690.8
2305.86
2217.71
19665.4
35405.8
43480.9
49072.4
52485.9
54115.3
76073.8
74864.5
72219.4
67766
65462.4
57747.5
53599.1
2685.9
2247.57
20045
32820.4
43390.3
48965.3
52417.3
54042
76070.9
74843.8
72152.6
70697.8
65205.8
60588.7
55426.4
3282.88
2267.68
17970.8
31381.5
41568.6
48826.1
52360
53976.3
76080.2
74859.3
74069.8
70551.5
67129
61884.1
55493.1
2359.2
2273.22
17490.4
30315.6
41235.1
47599.6
52245.2
53930.4
76083.5
74853.3
74049.1
70426.4
67965.5
61892.3
55553.1
2696.75
2465.36
15887.9
29397.3
40070.2
47465.3
52174
53891.6
76084.3
74862
74031.6
71791
67955.6
61924.7
55642.9
2627.06
2295.98
12071.9
28346.4
39382.4
47423.8
52196.5
53910.1
76115.3
74883.1
74051.9
71819.8
67966.3
61952.6
55765.9
3264.55
2349.07
10967.7
28392.6
39486
47556.4
52302.4
54005.8
76142
74917
74120.8
70502.3
68016.3
61949.4
55734.1
3437.81
2266.73
16049.6
29725.5
40455.6
47805.5
52476.6
54140.6
76168.9
74940.6
72249.4
70752.1
67221.1
61954.9
55614
2412.01
2332.6
18001.2
30825.4
41804
49190.7
52670.2
54263.1
76205.7
74997.3
72359.8
67915.8
65511.1
57853.8
53741.6
2298.01
2311.62
19194.4
33173.4
43814.3
49341.9
52757.8
54367.5
76260
75052.3
72494.6
68030
65662.6
58049.6
53844.5
2375.96
2367.14
20081.9
35769.5
43865.3
49444.9
52840.2
54459.9
76312.9
75109
72584.1
68173
65844.5
58260.7
54024.1
2298.38
2379.75
23283.3
35681.9
43916.9
49504.1
52901.7
54524.1
76343.4
75145.1
72632.4
68241.2
65929.5
58418.9
54227.8
2552.28
2412.17
23780.5
35754.1
43950.8
49548.8
52939
54562.2
73373.1
71748.2
68299.8
62201.6
51723.7
42038
17693.6
2288.69
2181.99
25637.8
37458.9
45201.1
50451.4
53613.3
55127.5
73342.1
71709.4
68236.3
62112.4
51584.3
41862.7
17547.3
2277.86
2194.67
25499.2
37284.3
45105.9
50366.2
53553.4
55075.5
73289.5
71649.1
68137.8
61982.2
51344
41445
17441.9
2289.73
2219.99
20610.7
36914.9
44896.2
50211.9
53440.8
54980.5
73233.7
71601.1
67998.5
61823
55738.6
41046.2
17420.1
2281.39
2250.94
20326.6
32988.9
44606.9
49993.1
53291.6
54855.5
73203.4
71568.1
67941.3
64376.7
55671.3
44834
23817.6
2283.51
2265.63
17335
30916.4
41651.1
49740.5
53157.2
54733.3
73198.6
71540.6
69587.5
64328.9
57869.3
46721.5
24671.4
2277.67
2262.54
16655
29365.6
41165.4
47650.2
53009
54642.5
73183.8
71509.7
69609.3
64249.9
58829.1
46808.7
24802.9
2285.52
2231.83
14360.6
28148.7
39413.3
47438.2
52921
54586
73183.4
71513.5
69604.5
65615.9
58760.4
46817.4
24939.3
2344.48
2257.67
9225.48
26932.8
38442.9
47404
52950.4
54615.6
73221.2
71543.4
69623.4
65628.4
58743.5
46791.5
25214.3
2295.83
2287.61
10255.3
27325.2
38660.2
47594.1
53092.6
54730.3
73272.3
71609.6
69681.6
64297.9
58811.2
46727.7
24956
2291.76
2304.26
16062
29112.8
40082
47933
53313.9
54902
73321
71682.2
68053.4
64506.9
57895.8
46689.1
24584
2391.27
3524.84
18189.3
30433.2
42061.3
50227.6
53542
55076.7
73391.9
71761
68165.7
61994.3
55856.8
41224.6
19119.9
2295.49
2325.6
19145
33567.9
45184.3
50480
53706.3
55237.8
73479.1
71845
68343.8
62205.1
51582.9
41516.4
17602.8
2281.7
2374.7
20803.2
37390.8
45376.6
50658.3
53852.8
55374.9
73554.7
71930.4
68473.8
62375.9
51873.5
41976.7
17775
2258.86
2391.4
25449.2
37570.7
45474.1
50761.5
53950
55466.8
73597.6
71982.8
68554.3
62492.7
52054.8
42321
17967.1
2268.43
2420.2
25877.7
37615.9
45541.9
50826.4
54001.7
55516.4
72840.8
71148.4
67530.1
61289
50432.1
38992.3
4837.89
2271.03
8783.61
32717
43135.9
49877.5
54336.8
56962.9
58212.8
72793.9
71089.9
67428.4
61110.8
50272
38391.5
4597.33
2230.54
6825.8
32229.9
42791.4
49690.2
54204.6
56876.3
58141.9
72715.9
70997.6
67274.4
60859.2
50408.6
36965.6
6838.77
2309.88
2216.19
24610.6
42251
49359.1
53965.3
56716.3
58014
72630.7
70917.7
67136.9
60700.8
52553.3
35979.6
8140.5
2288.27
2244.18
23969.8
37103.9
48924.6
53638.7
56502.1
57847.2
72576.4
70879
67135.2
62154.2
52260.2
38571.1
17124.5
2285.96
2250.93
19621.4
34152.4
45150.8
53348.2
56317.5
57688.1
72559.2
70870.4
67989
62041.1
53767.4
39926.7
17535.4
2277.92
2584.49
18536.2
32059.8
44499.8
50643.9
56172.3
57574.9
72532.6
70830.3
67977.4
61969
54425.8
40196.3
20159.5
3956
2295.26
16036.5
30815.9
42274
50362.8
56081.7
57512.3
72536.2
70830.7
67982.7
62900.9
54301
39990.3
18579
2290.75
2300.98
12790
29963.5
41176.1
50344.7
56125.2
57553.7
72578.7
70871.9
68010.8
62900.7
54233.6
39680.7
17462.4
2318.94
2250.62
14855.1
30717.9
41525.7
50585.6
56295.8
57685.7
72649.5
70957.5
68059.2
62026.7
54307.4
39569.7
17075.1
2233.16
22597.9
20424.3
32565.8
43252.1
51008.3
56544.6
57882.8
72719.5
71020.6
67280.6
62253.6
53738.5
39662.1
17121.1
2256.42
2531.66
21524.1
33832.7
45771.4
53961
56776.8
58087.2
72820.2
71113.2
67346.3
60922.9
52555.3
36484.3
16610.3
2303.17
2344.93
22254.1
37842.7
49705.4
54250
56991.6
58285.8
72940.3
71231.8
67526.3
61139.2
50702.5
36605.4
6905.97
2273.14
2384.87
24781.6
42885.5
49963.8
54497.9
57190.6
58459.7
73042.9
71350.5
67710.2
61427.6
50628.2
38683.3
4749.65
2235.15
4885.38
32256.7
43113.6
50120.8
54662.2
57323
58576.8
73102.4
71423.3
67827.8
61637.1
50837.5
39376.9
4735.18
2261.22
2453.11
31974.9
43099.3
50215.7
54749.6
57391.9
58640.5
74796.6
73510.3
70779.6
66379.1
56920.1
47315.1
2843.52
2247.7
29852.3
48238.2
53034.7
57690.5
60553.8
62222
63034.9
74733.6
73427.8
70637.6
66064.5
56533.7
46368.2
2229.66
2282.55
28836.9
47416.9
52621.9
57424.3
60385.1
62118.2
62955.2
74630.6
73297.7
70423.1
65529.9
58023.7
43346.5
11801.9
2406.14
14631.7
36492.2
52137.4
56958.8
60081.2
61933.1
62806.9
74518.3
73158.1
70173.7
65162.1
57044.4
41720.9
13334
2273.62
2415.69
33699.5
45819.6
56429
59688.3
61689.1
62622
74440.8
73069.7
70088.1
64940
56105.3
41890.2
18955.2
2269.4
2245.93
26345.9
41920.8
52022.3
59393.8
61486.5
62456.9
74407
73059.5
69905.7
64562.4
56186.5
42100.6
19203.7
2269.93
4674.13
24391.9
39049.7
51275.2
56262
61390.6
62354.8
74369.2
73006.1
69787.6
64399.7
56223.2
42023.6
21257.7
6856.36
8823.81
21789.2
37654.2
48703.2
55996
61322.9
62300.2
74378.3
73008.4
69776
64621.8
56012.3
41651
19656.1
2253.04
2293.27
19396.4
37043.7
47510.5
56019.6
61382.7
62353.2
74427.9
73063.3
69825.2
64638.8
55963.9
41349.3
18194.4
2278.28
2298.3
21697.2
38055.6
47970.9
56289.9
61562.5
62494
74520.8
73176.2
69923.2
64557.2
56159.9
41425
18059.3
2325.18
2424.12
26507.1
39979.8
49938.9
56732.3
61812.5
62698.6
74615.8
73251.9
70293.2
64919.5
56324.3
41952.4
18346.5
2300.18
9873.29
28265
41441
52884.2
60116.7
61998.3
62891.6
74744.5
73398.6
70445
65478.2
56805.3
41801.6
18281.1
2310.95
2377.46
30513.4
46727.1
57374.9
60389.6
62232.7
63099.7
74893.3
73576.7
70734.7
65898.1
58475.8
42970.4
13077.7
2319.81
12932.4
36013.9
53074.6
57732.3
60701.5
62461.8
63296.2
75020.4
73731.7
70972.7
66442.5
57021.7
46837.9
2460.3
2354.43
29559.4
48447.6
53261.6
58020.7
60934.2
62618
63428.5
75095.5
73828.6
71132.9
66790.3
57629
47893.4
7848.1
2386.21
29374.4
48899.6
53410.8
58171
61051.3
62701.1
63500.7
78776.5
78257.5
77223.5
76815.6
74562
82890.6
117147
96440.5
84761.3
72665.6
67781.4
68292.8
68461.1
68782.8
69010.1
78702.3
78148.4
77040.8
76300.4
73729.6
80576.2
110235
80224.5
77496.5
70534.4
67054.9
67880.2
68262.1
68670.2
68926.4
78577.3
77967.4
76747.6
74909
73280
65208.7
60070.8
42027.2
44309.5
58298
66014.9
67086
67904
68476.1
68781.8
78439
77767.3
76343
74242
68196
59846.4
39618.8
12398.4
21433.3
54228.4
60023.9
66404.3
67478.5
68241.4
68601.4
78339.9
77622.4
76140.3
72008.6
66859.2
55952.2
32048.1
2233.34
11507.8
42643.5
55357.6
62217.3
67181.4
68045.2
68450.2
78296.2
77590.1
74758.1
71481.8
65172.3
53739.5
29814.5
2242.14
7919.89
38061.6
51700.3
61500.8
64166.4
67952.5
68382.9
78251.5
77531
74537.3
71286.1
64387
52771.2
27837.7
2232.97
2325.51
33371.5
49978
58711.3
63952.8
67907
68344
78266
77542.9
74517.5
70624.8
64107.3
52407.8
28279.5
2314.05
2286.31
31294
49523.9
57469.9
64067.2
67976
68403.5
78323.5
77607.6
74584.6
70681.2
64140.8
52453.7
29905.8
2307.28
2324.68
35795.1
50875.9
57988.9
64331.5
68134.2
68536.1
78435.9
77741.4
74739.4
71566.6
64544.9
53032.6
28622.8
2304.88
14320.4
40896.1
52958.6
60096.3
64705.7
68353.9
68728.7
78548.8
77850.9
76422
71931.2
65668.1
54455.8
31503
4536.55
11831.4
43616.9
54702.7
63246
67904.9
68574.1
68883.1
78701.9
78054.9
76686.2
74680.9
67916.7
59400.8
33786.1
7587.98
12486.1
49307
61119.1
67405.9
68220.5
68800.2
69089.9
78876.1
78291
77124.4
75382.4
73940
62706.6
47503.8
29920.3
41896.5
58287.5
67264
67991.5
68583.2
69029.9
69280.3
79022.1
78490.2
77430.1
76730.3
74365.2
81349.4
112104
83753.1
80883.8
72309.8
68080.3
68671.8
68896.3
69206.3
69422.7
79106.6
78609.5
77623.9
77201.6
75207.2
82959.4
113412
102162
88201.8
74367.4
68708.5
69001.3
69062.5
69302
69499.8
83694.7
83982.4
84478.8
87328.1
90980.9
96656.2
122565
122143
110527
90191.7
82162.1
78881.9
76575.8
75680.8
75334.3
83633.7
83884.6
84383.8
87069
90859.8
97585.4
128976
133836
108449
89625
81592.8
78509.6
76409.9
75581.2
75262.2
83514.9
83666.1
84169.3
85491.2
89477.3
92320.5
116726
144917
110962
87143.6
80345.5
77622.5
76093.1
75400.8
75134.9
83379.6
83459.4
83727.8
84671.1
83776.7
89091.8
107168
140800
103862
84035.6
77379.2
76811.5
75711.5
75202.4
74986.1
83279.7
83302.8
83396.9
81616.1
82045.5
81123.9
81122
89003.6
76291.4
74522.7
73822
74086.5
75380.2
75028.2
74853.6
83245.4
83166.8
81460.9
81083.3
79179.6
76752.9
70407.7
9022.31
39284.1
67942.6
70520.2
73484.1
73214.4
74883.8
74801.2
83206.8
83103.2
81300.8
80809.8
77653.2
75380.8
66795.2
2824.41
2397.03
61646.6
68891.3
71464.9
73112.3
74828.8
74770.5
83230.4
83128.9
81292.8
79537.8
77394.6
74576.9
65582.2
5237.39
4400.24
61129.6
68646.8
70474.3
73163.6
74888
74826.6
83290.3
83193.9
81369.9
79604.7
77430.9
74372.1
61174.2
2227.04
44016.9
66108
69912.2
70961.6
73385.4
75013.7
74933.1
83407.1
83345.2
81530
81109.3
77874.1
75696.9
67582.3
22656.7
59350.2
71101.9
71766.2
72641.7
73717.4
75213.8
75097.3
83516
83564.5
83723.6
81678.6
79819.3
77931
74188
31703.4
69042.7
75156.1
73576.1
74840.2
75980.7
75483.6
75239.8
83670.6
83781.5
84118.5
85176.5
83754.3
87827.4
92707
119616
91902.9
81929.9
78391.4
77663.5
76360.2
75698.7
75431.8
83840.5
84022.4
84594.6
86026.2
90308.1
92597.2
117634
151853
113757
88420.7
81532
78485.3
76732
75920.4
75603.9
83976.2
84248.2
84811
87515
91451.9
98234.6
128057
134722
110187
90774.9
82529.1
79281.1
77022.9
76096.2
75737.8
84045.3
84348.4
84912.1
87698.9
91473.2
97441.7
122457
121163
110551
91094.3
82993.8
79605.1
77171.6
76186
75807.3
88244.7
88938.5
89903.3
92735.9
96823.4
96686.1
103434
109214
105176
94615.8
90089.4
86134.8
83159.3
81775.9
81103.9
88244.6
88931.7
90029.2
93079.3
97668.6
98910.6
107328
114186
105127
95756.3
90244.2
86129.1
83142.5
81737.2
81070.9
88206.1
88800.5
90158.4
92692.4
97323
100506
107741
121958
107187
97662.6
89933.7
85796.4
83051.3
81634.9
81001.4
88142.7
88703
89982.1
92736.5
94434.4
102380
115885
134976
117526
99090.1
89916.6
85516.1
82891.3
81525.3
80917
88076.7
88590.4
89747.9
90317.4
94156.4
100421
116599
150941
129425
101205
89310.1
84357.6
82641.4
81392.9
80820.2
88039.7
88388.8
88257.7
89878.7
92104.7
98608.7
117941
171620
136643
100807
88543.6
84112.2
81555.1
81204.7
80772
88021.8
88337.5
88219.3
89698.3
91103.6
98486.1
119735
187801
136045
99721
88097.9
83412.3
81519.5
81164.1
80752.8
88057.7
88369.3
88232.5
88723
90942.4
98090
119295
168111
133704
99564
88117.1
83168.8
81516.9
81216.5
80806.8
88112.5
88435.3
88311.9
88776.9
90954.8
97735.1
116662
170596
130764
100260
88581.5
83406.5
81662.4
81318
80883.4
88216.5
88581.9
88438.3
89962.9
91247.1
98199.9
116612
170714
135069
101720
89255.7
84026.7
81897.5
81471.8
81003.4
88330.1
88872.4
90114.6
90508.4
92616.2
99196.1
118948
174285
134360
102678
89885.5
84928.8
83116.3
81746.3
81140.3
88448.4
89041.3
90397.3
93262.3
94976.6
103784
119122
153072
128650
101957
90624.8
86127.7
83381.3
81914.8
81281.6
88544.1
89168.5
90601.2
93210
98048.9
102585
112762
128872
111038
99501.7
90656.3
86431.4
83548.1
82061.9
81395.1
88597.5
89299.3
90473.1
93526.6
98233.9
99646.3
107864
114525
105547
96191.9
90785.1
86682.9
83615.9
82165.7
81475.3
88606.8
89308.4
90370.8
93187.9
97527.9
97836.3
105825
109704
104356
94944.6
90492.9
86675.7
83619.8
82203.4
81509.8
91663.1
92327.7
93071.6
94502.1
97442.7
96975
98534.1
102862
98287.4
94583.7
92824.6
89874.7
87616
86412
85720.7
91737.4
92422.4
93315.6
95069.3
98229.5
98303.5
99589.4