/*--------------------------------*- C++ -*----------------------------------*\
| =========                 |                                                 |
| \\      /  F ield         | OpenFOAM: The Open Source CFD Toolbox           |
|  \\    /   O peration     | Version:  v2012                                 |
|   \\  /    A nd           | Website:  www.openfoam.com                      |
|    \\/     M anipulation  |                                                 |
\*---------------------------------------------------------------------------*/
FoamFile
{
    version     2.0;
    format      ascii;
    class       volScalarField;
    location    "0.014";
    object      p;
}
// * * * * * * * * * * * * * * * * * * * * * * * * * * * * * * * * * * * * * //

dimensions      [1 -1 -2 0 0 0 0];


internalField   nonuniform List<scalar> 
449343
(
108572
108682
108860
109013
109029
108680
107795
106304
104266
101897
99490.8
97323.5
95585.5
94384.7
93773.9
108556
108667
108845
108999
109015
108666
107782
106293
104258
101892
99487.7
97320.5
95581.5
94379.5
93768
108544
108656
108835
108990
109007
108657
107774
106289
104260
101900
99500.5
97333.6
95592.4
94387.9
93775
108535
108648
108830
108985
109003
108652
107772
106290
104270
101920
99527.5
97361.3
95616.6
94408.3
93793.1
108529
108643
108827
108985
109003
108650
107772
106297
104288
101949
99565.9
97400.2
95650.8
94437.2
93819
108524
108640
108826
108986
109005
108653
107779
106311
104313
101987
99610.5
97444.4
95689.1
94469.8
93848.2
108518
108635
108824
108986
109006
108657
107787
106326
104338
102023
99649.6
97484.4
95723.6
94499.1
93874.7
108510
108628
108819
108983
109005
108660
107792
106335
104352
102045
99674.9
97508.9
95745.3
94518.2
93892.5
108500
108618
108809
108975
109000
108658
107795
106341
104359
102048
99676.8
97511.1
95748.7
94522.6
93897.4
108485
108603
108795
108961
108990
108650
107789
106335
104347
102027
99654
97488.2
95731.8
94510.9
93888.3
108468
108586
108776
108943
108974
108637
107776
106317
104322
101993
99615
97451
95700.9
94486
93866.8
108449
108566
108755
108921
108954
108620
107759
106296
104292
101954
99568.7
97406.2
95662.4
94453.8
93838.1
108429
108545
108733
108899
108931
108600
107737
106271
104259
101912
99522.1
97360.9
95622.5
94419.1
93806.4
108408
108524
108711
108876
108908
108577
107713
106244
104226
101874
99480.9
97321.1
95586.5
94386.7
93776.1
108388
108503
108690
108854
108887
108556
107690
106219
104198
101844
99449.5
97290.5
95557.8
94359.9
93750.3
108445
108602
108877
109174
109372
109234
108475
106912
104613
101901
99195.7
96832.1
94987.6
93736.5
93106.5
108429
108586
108863
109161
109359
109220
108462
106901
104606
101898
99195.1
96830.6
94984.2
93731.4
93100.7
108417
108575
108853
109153
109353
109212
108454
106897
104610
101912
99214.2
96847.7
94996.8
93740.5
93108
108408
108568
108849
109151
109351
109205
108445
106891
104619
101939
99252.1
96882.8
95024.6
93762.4
93126.9
108402
108564
108848
109154
109355
109198
108442
106896
104628
101980
99307.9
96933.5
95064.5
93794.2
93154.7
108396
108561
108850
109161
109361
109203
108447
106913
104665
102034
99373.5
96993
95111
93830.8
93186.7
108391
108558
108850
109165
109364
109214
108462
106938
104704
102090
99444.2
97050.8
95154
93865.2
93216.6
108383
108551
108846
109164
109365
109219
108467
106903
104720
102120
99481.2
97083.9
95180.9
93888.2
93237.3
108372
108540
108836
109156
109359
109219
108477
106961
104737
102128
99483.8
97086.9
95186.7
93894.3
93244.1
108357
108525
108819
109140
109349
109206
108469
106953
104719
102093
99434
97051.8
95164.8
93881.5
93235.1
108340
108506
108798
109116
109327
109191
108457
106931
104681
102044
99376.3
97001.2
95128.7
93854.9
93213.1
108321
108485
108775
109091
109302
109180
108443
106911
104658
101990
99310.3
96943.2
95084.1
93819.9
93183
108301
108464
108751
109066
109277
109159
108423
106888
104621
101937
99249.2
96888
95039
93782.8
93149.9
108280
108443
108728
109041
109251
109135
108398
106858
104582
101890
99198.4
96841.8
94999.6
93748.7
93118.5
108260
108422
108707
109019
109228
109112
108374
106832
104552
101855
99162.8
96808.3
94969.3
93721
93092.2
108117
108379
108877
109529
110176
110587
110212
108463
105470
101859
98421.2
95613.8
93539.6
92182.7
91513.8
108101
108364
108863
109517
110165
110575
110197
108453
105466
101862
98425.5
95614.9
93537.1
92177.8
91507.8
108087
108352
108855
109513
110164
110570
110187
108452
105475
101892
98460
95639.8
93552.6
92187.9
91515.4
108077
108345
108853
109518
110171
110561
110157
108447
105465
101939
98528.1
95691.5
93586.9
92212.4
91535.9
108070
108342
108858
109531
110186
110542
110094
108389
105442
102031
98626.7
95767.4
93638.8
92249.8
91567.1
108064
108341
108866
109548
110213
110537
110092
108421
105508
102137
98757.7
95862.7
93701.7
92295
91604.6
108059
108339
108870
109564
110215
110564
110115
108463
105576
102229
98952.8
95962.7
93766.7
92340.1
91641.6
108051
108333
108867
109567
110225
110586
110156
108501
105616
102280
99010
96013.2
93806.2
92372.4
91669.5
108039
108321
108856
109556
110216
110578
110146
108512
105643
102295
99024.4
96021.8
93816.2
92383
91680.9
108025
108305
108837
109529
110211
110556
110141
108502
105615
102244
98867.8
95960.9
93786.2
92369.4
91673.3
108007
108283
108808
109495
110167
110552
110139
108461
105545
102145
98744.7
95878
93737.8
92339
91650.8
107988
108260
108779
109459
110133
110551
110178
108501
105546
102033
98628.8
95790.3
93679.4
92298.7
91618.3
107969
108239
108752
109426
110096
110528
110170
108464
105513
101947
98526.9
95711.1
93623.6
92256.6
91582.5
107949
108217
108727
109397
110062
110497
110144
108425
105461
101875
98452.6
95650.9
93577.2
92219
91548.9
107930
108197
108705
109373
110037
110472
110120
108394
105422
101830
98407.6
95611.4
93543.6
92189.5
91521.5
107463
107878
108708
109929
111412
112883
113615
111511
106999
101503
96828.6
93413.5
91076.6
89620.7
88924.7
107445
107861
108693
109917
111404
112872
113587
111499
106993
101511
96837.2
93415.1
91073.1
89614.7
88917.7
107428
107847
108686
109919
111414
112880
113585
111517
107038
101583
96892.3
93444.6
91088.2
89623.5
88923.9
107414
107837
108687
109937
111436
112901
113408
111535
106951
101726
97017.1
93510.7
91125
89648.2
88943.8
107402
107833
108697
109964
111488
112867
112674
111317
107845
101995
97209.3
93625.7
91186.3
89689
88977
107394
107833
108722
110035
111584
112107
112599
111339
107986
103358
97474.8
93775.3
91269.3
89741
89019.7
107386
107832
108736
110059
110948
112163
112613
111373
108060
103502
98884.7
93923.1
91356.5
89799.1
89065.4
107377
107828
108739
110069
110955
112202
112675
111347
108144
103607
98956.2
93996.4
91424.9
89848.4
89103
107365
107813
108721
110053
110951
112197
112673
111454
108191
103648
99002
94024.3
91436.8
89865.3
89123.8
107352
107795
108693
110021
111592
112150
112666
111464
108171
103613
97695.4
93950
91408.5
89855.9
89122.2
107336
107772
108647
109932
111484
112897
112750
111452
108100
102202
97424.4
93813.8
91345.1
89825.2
89101.4
107321
107750
108612
109882
111410
112914
113465
111640
107107
101899
97193.5
93675.2
91271.9
89780.2
89067.5
107304
107730
108581
109833
111354
112848
113594
111563
107114
101686
97010.2
93565.5
91204.4
89733.3
89029.4
107287
107710
108555
109797
111307
112802
113550
111491
107011
101552
96898.5
93488.7
91150.7
89692
88994
107269
107691
108533
109771
111277
112773
113535
111455
106966
101493
96841.1
93442.5
91113.8
89660.8
88965.5
106286
106868
108080
110021
112759
116209
119801
116927
109312
100058
93706.5
89829
87408.2
85991.3
85343.9
106264
106847
108062
110008
112752
116205
119769
116913
109312
100073
93713.4
89823.8
87398.9
85981.4
85333.6
106240
106826
108048
110010
112782
116240
119772
116925
109401
100169
93772.3
89840.7
87403.7
85983.4
85334.3
106216
106807
108045
110056
112917
116355
117504
117036
111082
100660
93993.1
89907.9
87427.5
85999.8
85348
106193
106790
108054
110106
112993
114903
117490
117005
111252
103113
94283.3
90017.7
87481.6
86033.9
85376.9
106175
106789
108100
110296
112148
115090
117535
116948
111312
103554
96703.9
90254.3
87551.9
86089.9
85420.2
106157
106773
108098
109730
112226
115208
116679
116399
111845
104761
97105.7
92268.2
87613.9
86140.8
85469.5
106147
106773
108155
109736
112280
115276
116756
116497
112053
105014
97378.3
92458
87811.6
86202.2
85523.7
106133
106750
108079
109716
112268
115283
116773
116585
112142
105132
97454.7
92517.6
87748.2
86241.3
85554.5
106130
106748
108071
110285
112157
115172
116835
116586
112103
104103
97216.4
90559
87779.4
86262.6
85568.8
106121
106725
108002
110076
112999
115000
117602
117153
111563
103740
94679.6
90338.3
87730.5
86235.3
85555.6
106115
106713
107966
110002
112898
116391
117586
117208
111464
100963
94287.8
90168.7
87649.9
86192.6
85525.3
106108
106701
107938
109922
112724
116218
119810
117050
109519
100328
93957
90026.7
87578.4
86145.1
85488.1
106097
106687
107916
109884
112655
116138
119752
116928
109341
100136
93812.8
89942.9
87522.5
86103
85452.8
106082
106671
107897
109860
112623
116102
119736
116878
109280
100054
93744.4
89894.1
87484.8
86071.4
85424.4
104348
105045
106560
109182
113403
120097
125499
130568
116565
95165.2
87849.1
84320.9
82297.8
81243.7
80801.7
104318
105016
106533
109160
113395
120090
125476
130537
116531
95144.8
87830.8
84294.1
82275.8
81225.8
80785.5
104281
104980
106500
109132
113394
120126
125446
130498
116478
95111.5
87793.7
84246.2
82252.8
81212.5
80775.1
104238
104942
106478
109165
113741
117951
125508
130566
116501
99762.2
87928.1
84172.4
82232
81209
80774.6
104189
104891
106430
109210
112537
118213
125778
128203
117999
100581
91379.2
84157.1
82188.4
81210
80788.9
104151
104847
106465
108791
112625
117281
124047
127191
118165
103180
91795.1
86778.9
82202.5
81230.8
80822.7
104112
104797
106440
108820
112755
117333
123187
127317
118989
104549
93870.6
87087.5
82245.5
81264.5
80869.5
104085
104760
106429
108876
112130
116853
123273
127505
119418
105121
94275.4
87369.2
84359.3
81312.6
80933.4
104085
104775
106424
108842
112126
117348
123336
127688
119785
105503
94520.2
87467.3
82483.1
81414.7
80989.6
104098
104799
106428
108753
112739
117393
123312
127711
119740
105422
94482.7
87438.6
82563.1
81480
81029
104107
104816
106370
109176
112529
118329
124102
128518
118799
103792
92311.3
84684.8
82563
81494.2
81033.2
104125
104837
106388
109103
113721
118019
125664
130805
116920
100474
88382.8
84560.4
82547.5
81473.8
81013.5
104134
104841
106378
109036
113336
120117
125502
130591
116653
95306.6
88048.2
84506.4
82494.4
81432.5
80982.3
104135
104841
106375
109028
113297
120034
125438
130524
116523
95193.4
87964.5
84460
82448.3
81394.8
80950.5
104127
104833
106364
109012
113266
119999
125432
130500
116476
95124.7
87903.3
84419.2
82414.5
81365.4
80923.7
101439
102103
103599
106369
111175
117848
134093
163685
120285
87244.2
77275.2
76176.5
75606.2
75480.3
75471.9
101401
102062
103556
106322
111131
117809
134035
163626
120162
87142.9
77199.5
76113
75567.4
75452.2
75448
101342
101997
103478
106213
110979
117730
133886
163498
119921
87010.7
77022
75994.4
75508.7
75416.3
75422.7
101269
101916
103383
105962
110321
118011
133821
163274
119615
87063.6
80401.7
75656.7
75423.1
75378.5
75402.6
101175
101795
103165
105991
110293
117083
130796
163013
120669
91156.7
80233.2
77934.7
75237.6
75340.9
75395.2
101084
101632
103581
106007
110006
116993
129316
157929
125748
93509.9
82826.4
78042.1
77074.2
75330.3
75419.1
101023
101563
103547
105971
110002
116542
129151
157779
126369
94354.8
84720.8
79964
77184.8
75425.7
75483.3
100972
101514
103581
105978
109985
116500
129097
157856
127995
95908.9
85597.2
80439.3
77456.8
75534.8
75542.9
100994
101536
103529
105990
110006
116518
129149
158137
129887
97257.1
86230.9
80750.6
77558.6
75610.9
75638.6
101015
101567
103532
105935
110019
116578
129279
158300
129215
96828.5
86068.3
80705.8
77622.5
75649.1
75684.1
101077
101705
103087
105921
110250
117080
129464
158340
127139
95218.2
84128.2
78775.7
75751.6
75711.2
75707.1
101136
101790
103273
105880
110150
117917
130928
163303
120339
92163.3
81068.7
76170.3
75836.2
75716.4
75703
101172
101835
103335
106100
110908
117677
133898
163469
119887
87280.4
77320.7
76325.5
75816.8
75693.1
75681.3
101193
101863
103376
106172
111024
117745
133995
163587
119838
87082.8
77355.5
76321.8
75786.4
75665.8
75655.8
101193
101866
103382
106183
111033
117748
134049
163636
119879
87040
77331.1
76302.1
75759.4
75640.1
75631.9
97513.8
97884.4
98726
100326
103056
109525
116743
114253
29006
56613.7
62228.8
65649.3
67827.1
69201.6
69834.6
97466.6
97833.1
98668.1
100254
102986
109447
116673
114118
27730.3
56368.4
62079.3
65567.7
67782.1
69166.8
69804.5
97389.4
97741.8
98560.1
100138
102817
109279
116506
113938
26266
56165.4
61924
65505
67729.2
69122.8
69770
97286.5
97607
98390.1
99800.5
104016
108787
116146
113643
26046.1
56255
63237.1
65499.7
67685.1
69084.1
69744.2
97153.1
97437.4
98138.9
100850
103685
109089
116773
113172
27609.4
59751
64847.2
66841.9
67766.1
69101.4
69744.3
97007.3
97277.8
99162.4
100675
104095
109237
116391
112526
27489
60477.9
66232.3
67191.2
68967.2
69237.3
69795.5
96936.4
97197.3
99086.6
100554
104292
109076
116095
111908
28621.4
62190.7
67440.5
68688
69168.4
69397.6
69896.1
96888.4
97139.3
99025.6
101161
104247
108988
115909
111270
36173.1
66335.5
69223
69944
69518.7
69554.6
69984
96896.6
97159.8
99014.5
101143
104243
108990
115896
111062
57826.6
70171
70438.1
70452.7
69667.8
69627
70079.3
96922.4
97198.4
99061.5
100541
104272
109084
116096
111634
55779.8
68402.6
69871.9
69732.8
69676.4
69620.3
70107.2
97028.6
97318.4
98033.8
100673
104089
109245
116436
112506
30965.8
63728.8
68231
68041.5
68383.4
69544.3
70113.7
97120.4
97448.7
98248.8
99682.1
103808
108412
115797
113345
26488.4
59134
64083.2
66136.1
68189.8
69483.2
70095.1
97184
97545.2
98383.6
99998.9
102718
108993
116307
113815
25162.9
56336.3
62282
65906.4
68092.8
69445
70069.2
97221.9
97598.4
98454.7
100073
102853
109325
116588
114123
25190.4
56150
62244.9
65809.4
68037.3
69414.6
70044.6
97230.2
97611
98474.4
100111
102889
109413
116704
114285
25554.9
56192.9
62267.7
65793
68007.1
69389.8
70022.6
92858.4
92692
92333.4
91788.2
91495.8
95190.6
98690.9
111816
10331.2
34827.2
48496.3
55838
60657.8
63484.7
64759.7
92808.5
92637.8
92274.2
91721.1
91436.3
95114.3
98615.2
111592
3190.31
34675
48344.6
55769.3
60611
63444.5
64723.6
92728.8
92548
92174.6
91647.8
91327.3
94954.8
98445.7
111403
4159
34660.8
48287.5
55748.8
60567.2
63401.5
64682.7
92626.4
92416.3
92030.4
91628
94009
94829.5
98133.5
111121
4596.85
34815
48269.2
55890.8
60558.5
63379.6
64656.4
92506.5
92277
91946.9
93521.6
93946.1
96536
99049.1
110892
3581.6
34548.7
48819.9
56476
60647.4
63432.4
64671.1
92382.2
92224.5
93352.3
93390.4
95047
97200.4
98778.8
110156
2314.07
35119.8
49451.2
56639.1
61308.4
63545
64746.8
92322.5
92176.9
93199.7
93320.2
95596.4
97034.2
98544
109660
5878.61
37346.4
50625.6
57497.1
61535.8
63692.3
64847.7
92273.5
92123.2
93121
94194.6
95525
96943.4
98408.1
109268
22201.3
45003.5
52841.5
58526
61852.3
63867.5
64948.3
92267.2
92123.8
93103.3
94174.4
95515.1
96940
98411.8
109366
60951.9
51016.8
54453
59128.3
62095.8
63978.4
65058.4
92272.7
92120.2
93150
93301
95554.6
97024.8
98560
109877
2262.99
44710.9
53667.8
58844
62171.8
64006.2
65098.6
92344.8
92119.5
91808.4
93275.2
95026.3
97192.5
98804.3
110360
6758.8
38686.9
51823.2
57804
61372.2
63935.4
65081.1
92415.9
92211.3
91838.1
91468.7
93869
94847.2
98198.4
111054
4346.2
35882.4
49563.8
56618
61126.2
63818
65038
92474.6
92301.4
91945.8
91449.2
91180.9
94800.2
98250.1
111266
2960.08
35099.5
48755
56205.7
60967.8
63750.1
65003.7
92512.9
92351.4
92008.8
91492.7
91261
94941.5
98488.8
111517
4426.05
34806
48576.7
56045.5
60890.6
63710.4
64979.4
92523.1
92366.6
92030.4
91524.4
91286.8
95039.4
98615.7
111663
2507.76
34733.6
48595.6
56008.2
60855.3
63686.8
64960.1
88193
87428.9
85834
83251.8
82615.8
80864.4
82967.3
4444.6
26839.1
41527.4
50146.4
56103.2
59666.4
61325.1
88144.4
87376.4
85776.4
83189.6
82549.1
80786.4
82889.6
2298.9
26649.1
41394.7
50072.4
56036.5
59610.4
61274.6
88073.3
87302.8
85687.9
83097.4
82483.9
80688.2
82737.5
2292.11
26361.9
41320.7
49981.6
55943.4
59538.4
61205.5
87994.3
87216.4
85577.7
83145.3
82666.6
80532.6
82485.6
2297.19
26296.9
39768.7
50000.4
55856
59469.5
61136.4
87919.6
87138
85604.2
85263
83091.8
82538.1
83076
2287.94
23657.9
38863.8
49110.5
55794.3
59440.1
61092.4
87846.1
87161.1
87016.9
85389.1
84314.1
83419.9
82936.3
2288.9
23090.3
38207.8
48936
55384.2
59393.2
61100.2
87797.8
87120.5
86952.5
85391.9
84996.3
83374.9
82841.5
2849.28
22194.1
38136.1
48700.1
55462.6
59426.1
61139.8
87743.5
87071.9
86893
86225
85062.4
83336.5
82797.4
2305.92
22651.7
39083.5
49106.8
55667.5
59555.1
61215.2
87723
87047.3
86863.4
86206.2
85043.9
83330.9
82815.1
2288.19
25129
40630.7
49772
55963.1
59712.5
61356.5
87702.9
87024.5
86868.1
85325.1
84939.5
83344.2
82853.8
2340.07
27668.9
41226
50183.9
56210.8
59856.8
61463.9
87709
86927
85406.9
85078.2
84177.6
83346.5
82918.8
2296.69
26409.1
40761.1
50339.6
56521.2
59950.3
61506.7
87724.7
86949.7
85316.1
82917.7
82513.9
80542
82113.2
2302.97
25909.6
40952.9
50748.1
56421.4
59907.6
61516.3
87754.6
86989
85389.1
82828.8
82232.8
80485
82533.7
2300.36
26760.4
41826
50453
56346.8
59884.7
61522
87781.6
87020.5
85438.1
82892.7
82305.5
80600.4
82753.5
2294.12
26759.3
41650.4
50364.2
56316.9
59871.8
61524
87789.5
87033.3
85457.6
82919.3
82306.7
80672.4
82884.5
2294.72
26767.2
41650.3
50326.2
56298.6
59862.4
61518.1
84455
83150.5
80399.6
75569.2
72605.5
63958.1
58761.4
3215.01
2296.46
27131.9
40188
49003
54987.2
58594.9
60318.3
84402.8
83091.9
80326.3
75470.5
72503.8
63820.5
58599
2270.63
2296.89
26657.5
40009.2
48881.4
54880.8
58509.9
60241.7
84327.3
83012.2
80214.2
75300.6
72360.6
63605.6
58415.8
2265.09
2296.49
22409.9
39827.3
48662.6
54698.6
58374.4
60117.9
84247.3
82933.3
80055.8
75144.8
72176.4
63329.1
58249.2
2267.93
2299.09
22647.7
36529.8
48366.3
54452.4
58199.3
59962.5
84180.1
82847.3
79926.1
77968.1
71763.9
66291.3
60106.7
2290.09
2305.93
19450
34333.3
45842.3
54147.5
58020.3
59798.9
84111.8
82760.2
81731.6
77754
73764.4
67611.3
60121.6
2384.74
2276.52
16758.5
32083.8
45109.7
52465.3
57815.8
59681
84042.8
82675.4
81665.3
77546.1
74562.9
67545.4
60177.5
2572.4
2281.51
9698.69
30039.2
43529.5
52258
57720.9
59623.2
83973.9
82612.6
81581.5
78933.5
74456.5
67506.5
60216
3498.96
2243.38
9077.43
29687.4
43063.9
52338.6
57783.9
59665.3
83944
82575.7
81548
78910.6
74429
67511.7
60373.9
20635.7
2304.63
13802.7
31639.5
43789.4
52672.2
57975.2
59822.1
83922.7
82568.7
81567.7
77472.7
74485.1
67496.6
60239.3
2244.3
2236.73
18230.4
33731.5
45170.1
53105.7
58229.3
60010.1
83905.7
82566.8
79631.9
77706.6
73625.7
67486.7
60067.4
2366.96
3115.4
20800.3
34906.6
46734.1
54785.3
58479
60171.4
83902.2
82585
79698.9
74794.8
71751.2
63078.4
58119.6
2943.08
2294.75
21917.8
37367.8
49037.4
54947.6
58587.7
60299.8
83927.7
82610.3
79813.4
74910.2
71913.5
63284.3
58266.7
2653.2
2297.7
22935.9
40237
49067
55049.8
58679.1
60397.1
83956.7
82646.4
79885.2
75049.9
72112.5
63539.9
58512.1
2929.48
2297.07
26628.1
40191.7
49117.9
55114.3
58735.2
60457.9
83967.7
82665.5
79922.5
75116.2
72209.6
63721.7
58760.8
2341.07
2297.45
26743.9
40269.9
49124.6
55139.5
58757.3
60480.1
82485
80807.4
77210.8
70783
59557.2
48088.6
20728.6
2299.83
2301.82
30535.1
43279.5
51608.3
57091.3
60355.3
61910.8
82420.1
80731.1
77097.9
70613.7
59264.3
47729.9
20639.8
2261.67
2309.25
30145.7
43054.1
51431.7
56942.6
60237.4
61806.1
82323.5
80625.6
76951.6
70442.2
58919.8
47164.2
20339.1
2240.54
2302.74
24138.8
42669.1
51117.9
56675.3
60032
61625.3
82213.6
80524
76771
70245.1
63139.2
46707.4
20307.5
2250.34
2300.92
24101.7
37789.9
50580
56275.7
59742.6
61384.1
82117.1
80430.3
76680.1
72534.3
63029.7
50638.3
26935.5
2284.33
3528.91
19427.8
34620.1
46687.9
55757.6
59414.3
61114.5
82023.5
80330.2
78023.4
72405.8
65137.6
52610.7
27904.1
2279.05
2324.56
15239.8
31178.4
45561.8
53004
59098.8
60873.6
81924.4
80216.1
77962.1
72239.7
65994.1
52619
28254.8
2303.59
2707.14
2440.24
27628
42829.6
52514.5
58889.6
60724.4
81837.1
80128.9
77874.5
73455
65821.6
52419.2
27808.9
2353.25
2249.16
2315.4
26207.7
41517.6
52439.8
58884.2
60723.2
81794.1
80077.3
77821.4
73403.8
65781.4
52426.6
28088
2338.43
2238.71
8693.81
28489.4
42232.5
52777.8
59086.9
60879.5
81776.8
80067.9
77808.7
72092.9
65847.2
52473.5
27985
2308.52
2243.46
16175.4
31658.8
44402.8
53351.4
59415
61129.7
81762.5
80056.5
76259.5
72202.6
64844
52331
27612
2285.07
2287.85
19780.1
33915
47129.4
56229.9
59768.2
61404.6
81777.9
80069.3
76273
69699.3
62659.4
46400.5
21826.9
2288.62
2296.95
22083.9
38241.4
51053.7
56642.6
60038.1
61645.7
81829.2
80113.5
76408.6
69858.7
58315.2
46595.8
20100.7
2281.68
2304.45
24299.5
42892.1
51379.1
56923.8
60259.4
61838.6
81879.2
80177.9
76522.3
70016.1
58679.7
47065.6
20226.6
2258.49
2303.25
29895.4
43136.4
51545.2
57090
60396.7
61964.6
81903.7
80216.5
76603.9
70159.8
58972.5
47541.6
20512.1
2261.16
2304.28
30158.6
43288.9
51626.1
57170.3
60458.4
62019.8
82886.3
81254.7
77724.3
71455.5
60611.5
46799.1
9480.71
2298.43
13221
40097.5
50866
57717.1
62060.4
64584.7
65782
82804.2
81155.3
77562.9
71150.3
60114.9
45400.6
7553.32
2244.38
14226.1
39908.1
50634.2
57501
61877.3
64442.3
65656.3
82684.1
81022.4
77372.1
70936.2
60284.8
44323.3
9297.98
2258.45
2321.39
30817.6
50179.4
57085.4
61539.6
64187.3
65434.8
82546
80890.2
77195.4
70790.4
61697.6
43445.3
10345.5
2278.81
2595.6
30503.5
44091.4
56478.1
61044.2
63827.9
65136.6
82425.2
80786.3
77164.6
71748.5
61358.8
45837.5
20423.2
2299.96
2364.62
23981.6
40020.9
51740.1
60472.7
63412.9
64801.9
82311.8
80702.2
77576.9
71529.5
62542.8
47122.9
21659.8
2302.91
2217.24
19606.9
35988.8
50370.4
57014.6
63066.6
64497.1
82186.4
80558.5
77459.6
71320.1
62938
47057.7
25214.2
2306.76
2192.89
10782.7
32160
46959.9
56353.2
62788.7
64290.9
82081
80440.7
77342.3
71945.8
62640.6
46484.3
20464.3
2351.95
2315.7
2306.83
29797.1
45018.6
56157.4
62730
64253.2
82019.4
80369.2
77267.5
71865.7
62596.5
46663.9
20854.8
2273.85
2305.12
5170.27
31261
45520.2
56434.2
62912.4
64393.4
82000.2
80352.6
77225.7
71074.5
62733.9
47228.4
24362.3
9236.07
2272.79
17757.5
34819.7
48112.4
57045.4
63259.3
64665
81983.4
80299.9
76566.3
71160.8
62068.3
46823.2
20975.1
2272.76
5286.99
23068.9
37839
51675.3
60730.8
63639.5
64993.9
82015.3
80313.3
76514.4
69947.1
60698.2
42914
18844.6
2296.37
2405.76
26853.4
43898.4
56690
61254.6
64011.4
65309.4
82094.3
80391
76653
70074.7
59165
42973.1
9103.43
2275.46
5387.57
30446.9
50155.2
57178.7
61667.3
64324.4
65572.4
82171.8
80491.5
76833.8
70317.6
59171
44432.4
6826.15
2214.57
12526
39491.8
50525.8
57458.7
61931
64526.3
65749.5
82216.5
80558.8
76979.4
70611.1
59722.1
45951.1
7244.69
2202.26
13534.8
39841.6
50795
57624.5
62066.3
64622.8
65832.5
85748.3
84682.5
82448.8
78821.6
71299.3
62752.3
38385.1
2333.26
45753.1
59840.1
63514.3
67221.1
69435.6
70737.6
71379.9
85648.2
84552.2
82214.6
78260.7
69709.6
60684.1
14179.9
2331.86
41630.5
58897.9
63120.1
66947
69231
70584.7
71245.3
85506.4
84394.4
81999.1
77881.3
71841.8
56383.1
23727.1
2651.01
23548.1
47168.1
62924.3
66455.2
68860.4
70311.1
71008.6
85338.7
84206.1
81714.2
77537.7
69300.4
54158.3
22001.7
2306.01
11992.7
45221.1
55946.6
65864.2
68334.7
69938
70694.8
85187.9
84046.4
81591.2
76551.8
68451.4
53566.5
25921.7
2487.13
8021.68
35616.8
51190.2
60724.1
67813.4
69513.3
70351.9
85050.7
83939.2
80816.7
76065.3
67853.8
52963.8
25024.7
2293.08
4137.24
31190.7
46836.3
59462.3
64028.4
69204.1
70054
84893.7
83751.6
80519.8
75681.8
67292.2
51994
23914.3
2222.34
2217.01
23289.1
43323.9
55784.8
63390.6
68919.4
69829.8
84767.9
83598.8
80334.4
75358.1
66696.4
51061.5
23052.6
2342.95
2228.52
14774.9
40798.7
53624.2
63167.1
68835.2
69769.9
84690.9
83506.5
80226.6
75198.7
66513.7
51219.9
24721
2293.68
2257.85
17428.3
41395.3
53837.4
63328
68970.5
69880.4
84677.4
83494.9
80195.9
75216.5
66707.9
52272.2
34770.8
7728.65
2205.18
26232.1
44393.3
56374.3
63844.2
69276.6
70134.3
84670.2
83446.2
80780
75410.4
66852.8
52161.5
26648.9
6434.37
9891.98
32733.2
47632.5
60274.3
67880.1
69617.3
70450.8
84731.9
83520.8
80841.1
76328.3
67380.6
51863.1
23758
2307.46
10253.1
38705.3
55165.7
65849.1
68397.2
70018.3
70786.6
84845.5
83666.5
81114.8
76702.6
70056.2
53194.3
19318.7
2391.54
20523.3
45669.3
62667.1
66393
68881.6
70368.5
71080.3
84953.5
83807.9
81359.5
77174.5
68104.6
57910.1
2805.55
2328.45
39713.8
58362.4
62734.4
66772.7
69209.5
70603.2
71284.1
85020.9
83914.5
81604.6
77824.8
69915
62888.5
33354.2
2332.49
41498.6
59027.8
63127.3
67011.3
69382.9
70720.5
71383.5
90394.6
90233.9
90055.9
91089.8
92423.6
102500
148766
149607
109627
87815.4
80595.9
79114
78233.9
77985.6
77949.9
90282.9
90080.6
89805.4
90620.8
91235.6
104713
162096
140987
105240
86760.3
79911.3
78730.7
78012.7
77832.7
77818.8
90123.7
89885.6
89550
89351.9
90991.4
86977.6
104760
100597
84200.1
76940.6
78875.8
77977.5
77623.9
77563.2
77589.9
89920.8
89620
89052.7
88536.1
84494.5
81297.9
75688.6
36774.2
56155.6
72898.3
73521.5
77231.1
77103.6
77213
77293.4
89729.6
89374.4
88715
85753.2
83425.6
76000.9
55253.8
11944.1
36210.2
60484.1
68782.9
73062
76533.7
76819.9
76973.3
89563.7
89171.9
86909.3
85112.7
80733.1
73410.8
53008.8
2341.82
21965.9
54968.6
64584.8
72058.9
73377.1
76471.6
76715
89381.4
88949.9
86528.8
84590.7
78979
71183.2
48728.8
2451.21
6524.9
48945.9
62050.1
68747.9
72846.2
76217.2
76505.5
89244.9
88785.4
86263.8
83052
77945.3
68243
41907.8
3777.21
2208.77
43023
60056
66623.9
72619.1
76128.9
76436
89163.3
88685.3
86113.8
82800.8
77385
66953.5
40085.1
2313.16
2273.3
43112.4
59854
66562.5
72659.3
76209.5
76510.9
89163.8
88690.9
86094.6
83797.7
77460.4
67238.3
37071.9
2287.53
10554.3
48222.5
61622.3
68684.9
72984.3
76459.2
76727.2
89184.3
88728.3
87815.7
84070.4
78677.3
68822.7
43939.9
2571.5
24168
54542.3
64271.8
72246.8
76469.1
76819.8
76999.3
89292.1
88898.2
88098.7
87149.6
81719.5
76312.3
50424.6
2271.32
33344.7
63831.1
72284
77070.6
77051.4
77217.6
77325.3
89448.6
89133.2
88610.4
88066
89040.4
79947.9
75158.4
74984.4
70527.2
73548.6
78552.6
77832.1
77584.5
77570.4
77619.7
89585.2
89330.3
88940.3
89515.8
89408.4
102748
151868
131968
102960
86290.5
79477.2
78566.1
77966.1
77816.3
77828.9
89669.3
89470.1
89231.3
90304.3
91028.1
104403
155536
145681
107463
87765.3
80121
78917.2
78165.4
77941.1
77932.3
95508.9
96152.8
97482.3
101521
108004
114478
142054
146156
122486
104536
94938.3
89849.4
86609.3
85148.1
84532.7
95417.5
96034.9
97376.3
101555
108103
116341
150191
156477
124017
104823
94633.2
89601.2
86440.9
85017.8
84421.3
95271.1
95811.3
97225
100178
106866
113568
139342
169115
130868
104845
93439.2
88780.4
86089.3
84768.8
84220
95060.6
95518.5
96655.5
99267.4
100899
111895
138351
185095
132201
102556
91581.3
87884
85634.7
84455.7
83961.8
94844.6
95203.5
96080.4
96213.4
99483.7
105053
123537
188653
121388
96767
88996.3
85742.9
84986.1
84081
83660.8
94658.8
94879.1
94122
95256.8
96668.1
102201
130618
140663
99664.7
92358.4
86669.6
84890.9
83107.6
83678.3
83409.3
94476.1
94635.9
93812.3
94545.1
94569.7
99966
123224
173786
97429.6
90956.9
85346.7
83095.2
82711.8
83440.8
83222.2
94351.8
94486.5
93530.2
93003.7
93272.1
96051.2
101661
80144.2
153075
92206.9
84307.1
81873.3
82374.2
83347.9
83155.3
94278.7
94402.5
93391.1
92712
92619.2
94363
98947.1
125611
95391.6
87956.1
83422.3
81572.1
82358.7
83399.6
83203.9
94295.6
94451.4
93391.2
93870.3
92751
94624.7
100009
140140
94396.9
87402.3
83707.8
82512.5
82626.1
83624.4
83390.4
94349.6
94640.5
95323.6
94590.9
94764.4
96691.4
107720
188211
110129
91578.7
85392.9
84598.3
84852.2
84025.3
83651.6
94490.8
94882.4
95859.6
98186.1
98838.9
107859
125729
217777
127623
98768.5
90365.6
87696.7
85539
84436
83970
94661
95149.1
96448.3
99246.6
105749
111788
142292
179839
134650
104739
93384.7
88733.4
86077
84777.7
84245.6
94793.3
95381.9
96665.3
100778
106874
116041
149480
156037
124525
104846
94436.7
89584.2
86438.3
85017.7
84439.4
94862.4
95499.6
96812.4
101127
107297
115121
145455
147127
124200
105303
94807.8
89872.6
86603.2
85129.2
84530.9
99701.4
100588
101996
105016
110231
109405
112563
116962
111295
105733
100533
96119.3
92759.5
91033.9
90188
99677.5
100571
102096
105523
110836
110962
114731
120906
113185
106962
100896
96186
92735.4
90972.6
90124.6
99623.1
100452
102294
105451
110490
114197
119505
129401
117277
108934
100672
95916.5
92601.5
90804.6
89983.8
99500.3
100303
102086
105454
108297
116455
127710
142785
126216
110503
101273
95663.5
92421.1
90601.9
89812.3
99341.4
100080
101836
103102
108116
115681
131104
154442
132028
115122
102229
95177.2
92138.4
90329.2
89571.6
99184.2
99800.1
100157
102723
106320
114485
127986
148413
138996
118541
103226
95190
91210.7
89986
89354.2
99042
99612.9
99944.3
102486
105242
114558
132200
154408
138469
118551
102806
94579.6
90935
89793.3
89206.8
98947.8
99492.9
99783.6
101117
104915
114331
135447
175711
145633
117389
101574
93871.7
90693.6
89695.5
89152.7
98882.5
99427.1
99686.4
100941
104635
113942
135367
176804
143076
115016
100528
93485.3
90604.6
89725.6
89182.6
98891.7
99464.9
99681.9
102076
104539
113824
134708
170527
142299
113661
100096
93626.3
90718.1
89897.2
89332.9
98951
99671.2
101362
102287
105663
114109
134217
168381
140513
113732
100393
94367.7
91940.6
90280.4
89571.3
99051.5
99837.5
101597
105022
107762
117237
132709
158465
137161
113118
100960
95594.6
92394.7
90620
89839
99139.1
99963.5
101809
105079
110212
115872
124254
137233
121311
110683
100943
96064.1
92686
90869.4
90045.5
99178.7
100081
101620
105225
110371
111170
115965
122385
114334
107342
101096
96366.3
92820.7
91030.5
90179.2
99178.8
100092
101515
104894
109819
109209
112825
117863
112966
106441
100801
96361.2
92849
91083.7
90231.5
102401
103091
103961
105034
107886
106993
106058
109762
105730
103827
101431
98797.5
96496.7
95193.7
94445.6
102452
103168
104130
105628
108507
107922
107130
109634
106736
104851
101904
99033.9
96587.4
95200.4
94432.1
102538
103223
104564
106442
109345
111055
114009
117557
112203
107141
102515
99238.7
96688
95161.4
94392.1
102582
103324
104815
107375
109509
113946
119338
122407
116295
109126
103899
99559.7
96807.3
95124.7
94338.8
102582
103351
105029
106536
110441
115595
123127
125825
106635