/*--------------------------------*- C++ -*----------------------------------*\
| =========                 |                                                 |
| \\      /  F ield         | OpenFOAM: The Open Source CFD Toolbox           |
|  \\    /   O peration     | Version:  v2012                                 |
|   \\  /    A nd           | Website:  www.openfoam.com                      |
|    \\/     M anipulation  |                                                 |
\*---------------------------------------------------------------------------*/
FoamFile
{
    version     2.0;
    format      ascii;
    class       volScalarField;
    location    "0.014";
    object      p_rgh;
}
// * * * * * * * * * * * * * * * * * * * * * * * * * * * * * * * * * * * * * //

dimensions      [1 -1 -2 0 0 0 0];


internalField   nonuniform List<scalar> 
449343
(
108434
108545
108723
108875
108892
108542
107658
106167
104129
101759
99353.4
97186.2
95448.2
94247.4
93636.6
108438
108549
108728
108881
108898
108548
107664
106175
104140
101774
99370
97202.8
95463.8
94261.8
93650.3
108446
108558
108737
108892
108909
108559
107676
106191
104162
101802
99402.4
97235.5
95494.3
94289.8
93676.9
108457
108570
108751
108907
108925
108573
107693
106212
104191
101841
99449.1
97282.9
95538.1
94329.8
93714.6
108470
108584
108768
108926
108944
108591
107714
106238
104229
101890
99507.1
97341.4
95591.9
94378.4
93760.2
108485
108600
108787
108946
108965
108614
107739
106272
104274
101947
99571.2
97405.1
95649.9
94430.5
93809
108499
108616
108804
108966
108986
108637
107768
106306
104318
102003
99630
97464.8
95704
94479.4
93855.1
108510
108628
108819
108983
109005
108660
107792
106335
104352
102045
99674.9
97508.9
95745.3
94518.2
93892.5
108519
108638
108829
108995
109020
108677
107815
106361
104379
102068
99696.4
97530.7
95768.3
94542.2
93917
108525
108643
108834
109001
109029
108689
107829
106374
104386
102066
99693.2
97527.5
95771
94550.1
93927.5
108527
108644
108835
109002
109033
108696
107835
106376
104381
102052
99673.9
97509.9
95759.8
94544.9
93925.7
108527
108644
108833
109000
109032
108699
107838
106375
104370
102032
99647.2
97484.7
95740.9
94532.2
93916.6
108527
108643
108831
108997
109029
108698
107835
106369
104357
102010
99620.2
97459
95720.6
94517.2
93904.5
108526
108641
108829
108993
109026
108695
107831
106361
104344
101992
99598.6
97438.8
95704.2
94504.5
93893.8
108526
108641
108827
108992
109024
108693
107828
106356
104336
101981
99586.8
97427.8
95695.2
94497.3
93887.7
108308
108464
108740
109037
109235
109096
108338
106774
104476
101763
99058.3
96694.8
94850.3
93599.1
92969.2
108311
108469
108745
109043
109241
109103
108344
106783
104489
101780
99077.3
96712.9
94866.5
93613.7
92982.9
108319
108477
108755
109055
109254
109114
108356
106799
104512
101814
99116.1
96749.6
94898.7
93642.4
93009.9
108329
108489
108770
109073
109272
109126
108367
106812
104541
101861
99173.6
96804.3
94946.1
93683.9
93048.4
108343
108505
108789
109095
109296
109139
108383
106837
104569
101921
99249
96874.6
95005.6
93735.4
93095.9
108357
108522
108811
109121
109322
109164
108408
106874
104626
101995
99334.3
96953.8
95071.8
93791.6
93147.4
108371
108538
108831
109145
109344
109195
108442
106918
104684
102071
99424.6
97031.2
95134.4
93845.5
93197
108383
108551
108846
109164
109365
109219
108467
106903
104720
102120
99481.2
97083.9
95180.9
93888.2
93237.3
108392
108560
108856
109175
109379
109239
108496
106981
104757
102147
99503.4
97106.5
95206.3
93913.9
93263.7
108397
108564
108859
109179
109389
109246
108508
106992
104759
102132
99473.2
97091
95204.1
93920.7
93274.3
108399
108565
108857
109175
109386
109250
108516
106990
104739
102103
99435.1
97060.1
95187.6
93913.7
93272
108399
108563
108853
109170
109381
109258
108521
106989
104737
102069
99388.8
97021.7
95162.5
93898.4
93261.5
108399
108562
108849
109164
109375
109257
108521
106986
104719
102035
99347.3
96986.1
95137.1
93880.9
93248
108398
108560
108846
109159
109369
109253
108515
106975
104700
102007
99316.2
96959.5
95117.3
93866.4
93236.3
108398
108559
108844
109156
109366
109249
108512
106969
104689
101992
99300.2
96945.6
95106.7
93858.4
93229.5
107980
108242
108740
109392
110038
110450
110075
108326
105333
101721
98283.9
95476.5
93402.3
92045.3
91376.4
107983
108246
108745
109399
110047
110457
110079
108335
105349
101744
98307.8
95497.2
93419.4
92060.1
91390.1
107989
108254
108757
109415
110066
110472
110088
108354
105377
101794
98361.9
95541.7
93454.5
92089.8
91417.3
107999
108266
108775
109439
110093
110483
110078
108368
105386
101861
98449.7
95613
93508.4
92134
91457.4
108011
108283
108799
109472
110127
110483
110035
108330
105383
101972
98567.9
95708.5
93580
92190.9
91508.2
108025
108302
108827
109508
110174
110498
110053
108382
105469
102098
98718.5
95823.5
93662.5
92255.8
91565.3
108039
108319
108850
109544
110195
110544
110095
108444
105557
102209
98933.1
95943
93747.1
92320.5
91622
108051
108333
108867
109567
110225
110586
110156
108496
105616
102280
99010
96013.2
93806.2
92372.4
91669.5
108059
108341
108875
109576
110235
110598
110166
108532
105663
102314
99044
96041.4
93835.8
92402.6
91700.6
108064
108344
108876
109568
110250
110595
110180
108541
105654
102283
98907
96000.1
93825.4
92408.6
91712.6
108066
108341
108866
109554
110226
110611
110198
108520
105604
102204
98803.6
95936.8
93796.7
92397.9
91709.7
108066
108339
108857
109538
110211
110630
110257
108579
105625
102112
98707.3
95868.8
93757.9
92377.1
91696.8
108067
108337
108850
109524
110194
110626
110268
108562
105611
102046
98625
95809.2
93721.7
92354.7
91680.6
108067
108335
108845
109514
110180
110615
110262
108542
105578
101992
98570.3
95768.7
93694.9
92336.7
91666.7
108067
108334
108842
109510
110174
110609
110257
108532
105560
101967
98544.9
95748.8
93681
92326.8
91658.8
107326
107741
108571
109791
111275
112745
113477
111373
106862
101366
96691.2
93276.2
90939.2
89483.3
88787.3
107327
107743
108576
109799
111286
112755
113470
111381
106875
101394
96719.5
93297.4
90955.4
89497
88799.9
107330
107749
108588
109821
111316
112782
113487
111419
106940
101485
96794.2
93346.5
90990.1
89525.4
88825.8
107335
107759
108608
109858
111358
112823
113329
111456
106873
101648
96938.6
93432.2
91046.5
89569.8
88865.3
107344
107774
108638
109905
111429
112809
112611
111253
107782
101936
97150.4
93566.8
91127.4
89630.1
88918.1
107355
107794
108683
109995
111544
112063
112555
111294
107942
103314
97435.5
93736.1
91230
89701.8
88980.4
107366
107813
108716
110040
110924
112138
112588
111348
108036
103477
98860.2
93903.5
91336.9
89779.5
89045.8
107377
107828
108739
110069
110951
112197
112670
111342
108139
103602
98951.3
93996.4
91424.9
89848.4
89103
107385
107833
108741
110073
110965
112211
112687
111469
108206
103663
99016.7
94043.9
91456.4
89884.9
89143.5
107392
107834
108732
110061
111631
112184
112700
111498
108205
103648
97734.6
93989.3
91447.8
89895.1
89161.4
107395
107831
108706
109991
111543
112955
112804
111506
108154
102261
97483.2
93872.6
91403.9
89884
89160.2
107399
107829
108690
109960
111488
112993
113544
111719
107185
101977
97271.9
93753.6
91350.4
89858.7
89146
107402
107828
108679
109931
111452
112946
113692
111661
107212
101784
97108.3
93663.6
91302.5
89831.4
89127.5
107405
107828
108672
109914
111424
112919
113668
111609
107129
101670
97016.2
93606.4
91268.4
89809.8
89111.7
107407
107828
108670
109908
111415
112910
113672
111593
107103
101630
96978.4
93579.8
91251.2
89798.2
89102.8
106149
106730
107943
109884
112622
116072
119664
116785
109175
99920.8
93569.2
89691.7
87270.8
85854
85206.5
106146
106729
107944
109890
112634
116087
119652
116790
109194
99955.7
93595.7
89706.1
87281.2
85863.6
85215.9
106142
106728
107950
109912
112684
116142
119673
116822
109303
100071
93674.2
89742.6
87305.6
85885.3
85236.2
106137
106729
107967
109978
112838
116276
117421
116953
110998
100582
93914.6
89829.4
87349
85921.3
85269.5
106134
106732
107996
110047
112934
114839
117427
116941
111189
103050
94224.4
89958.8
87422.7
85975
85318
106136
106750
108061
110256
112103
115046
117491
116904
111268
103510
96659.7
90215.1
87512.7
86050.7
85380.9
106137
106754
108078
109705
112202
115184
116652
116372
111818
104734
97081.1
92243.7
87594.2
86121.1
85449.9
106147
106773
108155
109731
112275
115271
116749
116490
112045
105007
97373.4
92453.1
87811.6
86202.2
85523.7
106152
106769
108098
109731
112282
115297
116785
116597
112154
105144
97469.4
92532.3
87767.8
86260.9
85574.2
106169
106787
108110
110324
112191
115206
116867
116618
112135
104137
97250.7
90598.2
87818.7
86301.9
85608
106180
106784
108061
110135
113058
115054
117656
117207
111617
103793
94738.4
90397.2
87789.3
86294.1
85614.5
106194
106792
108044
110080
112977
116469
117660
117281
111538
101042
94366.3
90247.2
87728.4
86271.1
85603.7
106206
106799
108036
110020
112822
116316
119908
117143
109617
100426
94055.1
90124.8
87676.5
86243.2
85586.2
106215
106804
108034
110002
112773
116256
119870
117040
109459
100253
93930.5
90060.6
87640.2
86220.7
85570.5
106220
106808
108035
109997
112761
116239
119874
117011
109418
100191
93881.8
90031.4
87622.2
86208.8
85561.7
104210
104908
106423
109044
113265
119960
125357
130426
116422
95027.8
87711.7
84183.5
82160.4
81106.3
80664.4
104201
104898
106415
109043
113277
119973
125353
130414
116408
95027.1
87713.1
84176.4
82158.1
81108.1
80667.8
104183
104882
106402
109034
113296
120028
125343
130395
116375
95013.4
87695.6
84148.1
82154.7
81114.4
80677
104159
104864
106399
109086
113662
117868
125425
130483
116418
99678.8
87849.6
84093.9
82153.5
81130.5
80696.1
104130
104832
106372
109152
112473
118149
125714
128137
117933
100517
91315.4
84098.3
82129.5
81151.2
80730.1
104112
104808
106426
108747
112581
117234
124000
127143
118118
103134
91751
86734.7
82163.3
81191.5
80783.4
104092
104777
106420
108795
112731
117306
123159
127289
118961
104521
93843.6
87063
82225.9
81244.9
80849.9
104085
104760
106424
108871
112122
116844
123264
127496
119409
105113
94268
87364.3
84354.4
81312.6
80933.4
104105
104794
106443
108856
112138
117360
123347
127700
119796
105514
94532.5
87482.1
82502.7
81434.3
81009.2
104137
104838
106467
108787
112773
117424
123343
127741
119771
105453
94514.5
87472.9
82602.4
81519.2
81068.3
104166
104875
106429
109234
112583
118383
124154
128570
118850
103844
92365.2
84743.7
82621.9
81553.1
81092.1
104203
104915
106467
109181
113800
118092
125738
130879
116993
100548
88461.3
84638.9
82626
81552.2
81092
104232
104939
106476
109134
113434
120215
125595
130685
116747
95404.7
88146.3
84604.5
82592.5
81530.6
81080.4
104253
104959
106492
109146
113415
120152
125551
130637
116636
95311.1
88082.2
84577.7
82566
81512.6
81068.2
104264
104970
106502
109149
113404
120136
125565
130633
116608
95262
88040.6
84556.5
82551.8
81502.7
81061.1
101302
101965
103462
106232
111038
117705
133951
163541
120140
87102
77137.9
76039.1
75468.9
75343
75334.6
101283
101945
103438
106204
111013
117687
133913
163501
120037
87020.3
77081.8
75995.3
75449.7
75334.5
75330.3
101244
101898
103380
106115
110881
117627
133783
163393
119815
86907.7
76923.9
75896.3
75410.6
75318.2
75324.6
101191
101837
103305
105883
110238
117928
133738
163188
119529
86980.2
80318.4
75578.2
75344.6
75300
75324.1
101116
101736
103106
105927
110230
117017
130730
162947
120603
91090.5
80169.4
77870.9
75178.7
75282.1
75336.4
101045
101592
103537
105963
109959
116946
129268
157881
125700
93462
82779.8
77997.9
77030.1
75291
75379.9
101004
101544
103523
105947
109975
116514
129123
157751
126341
94326.6
84692.6
79937
77160.3
75406
75463.7
100972
101514
103576
105973
109977
116492
129088
157848
127987
95900.3
85588.6
80431.9
77451.9
75534.8
75542.9
101014
101556
103544
106004
110018
116529
129160
158148
129898
97268.1
86241.9
80762.9
77573.3
75630.5
75658.3
101054
101606
103567
105969
110051
116609
129309
158330
129246
96859.2
86099
80737.6
77656.8
75688.3
75723.3
101136
101764
103146
105975
110304
117132
129514
158390
127190
95268.5
84179.7
78829.6
75810.4
75770
75766
101215
101868
103352
105958
110223
117990
130999
163374
120410
92234.5
81142.2
76248.8
75914.7
75794.9
75781.5
101270
101933
103434
106198
111006
117770
133991
163560
119978
87373.6
77418.8
76423.6
75914.9
75791.2
75779.4
101310
101981
103494
106290
111142
117858
134108
163698
119948
87195.6
77473.2
76439.6
75904.1
75783.5
75773.5
101330
102003
103520
106320
111170
117880
134181
163766
120009
87172.4
77468.4
76439.5
75896.7
75777.5
75769.2
97376.5
97747
98588.6
100189
102919
109383
116599
114107
28860.1
56471.5
62091.5
65511.9
67689.7
69064.3
69697.3
97348.9
97715.4
98550.3
100137
102868
109324
116548
113991
27604
56245.7
61961.5
65449.9
67664.4
69049
69686.7
97291.3
97643.7
98462
100040
102719
109176
116400
113832
26159.3
56062.3
61825.9
65406.9
67631.1
69024.7
69671.9
97208
97528.5
98311.7
99722
103933
108703
116060
113556
25959
56171.6
63153.7
65421.2
67606.6
69005.6
69665.7
97094.2
97378.6
98080
100787
103621
109023
116706
113104
27541.9
59683.5
64781
66778.2
67707.2
69042.6
69685.4
96968.1
97238.5
99118.2
100631
104048
109189
116343
112478
27441.1
60430.1
66184.4
67147.1
68923.1
69198.1
69756.2
96916.8
97177.7
99062.1
100530
104264
109048
116067
111879
28593.2
62162.5
67412.3
68661.1
69143.8
69377.9
69876.4
96888.4
97139.3
99020.7
101154
104239
108980
115900
111261
36164.5
66327
69214.4
69935.4
69513.8
69554.6
69984
96916.2
97179.4
99029.2
101156
104254
109001
115907
111073
57837.6
70182.1
70449.1
70463.8
69682.5
69646.6
70099
96961.7
97237.6
99095.8
100575
104303
109114
116127
111664
55810.5
68433.2
69902.6
69764.7
69710.8
69659.6
70146.5
97087.5
97377.3
98092.6
100727
104140
109296
116486
112556
31016.1
63779
68281.2
68095.5
68442.3
69603.2
70172.5
97198.9
97527.1
98327.3
99760.5
103881
108485
115868
113415
26558.2
59205.1
64156.8
66214.6
68268.3
69561.7
70173.6
97282.1
97643.3
98481.7
100097
102816
109086
116397
113904
25252.4
56429.5
62380.1
66004.5
68190.9
69543.1
70167.3
97339.6
97716.1
98572.4
100190
102970
109438
116698
114232
25299.6
56262.8
62362.6
65927.1
68155
69532.3
70162.4
97367.5
97748.3
98611.7
100248
103026
109545
116834
114413
25683.6
56325.3
62405
65930.4
68144.4
69527.1
70159.9
92721.1
92554.7
92196.1
91650.8
91358.5
95048.3
98546.2
111669
10185.3
34684.9
48358.9
55700.6
60520.4
63347.4
64622.4
92690.8
92520.1
92156.4
91603.4
91318.6
94991.7
98490.1
111465
3064.56
34552.4
48226.9
55651.6
60493.3
63326.7
64605.9
92630.7
92449.9
92076.5
91549.7
91229.2
94851.8
98340.2
111296
4052.38
34557.8
48189.4
55650.7
60469.1
63303.4
64584.6
92547.9
92337.8
91951.9
91549.5
93925.6
94746.1
98047.7
111033
4509.79
34731.6
48185.8
55812.3
60480
63301.1
64577.9
92447.6
92218.2
91888
93457.9
93882.3
96469.8
98981.6
110824
3514.16
34481.2
48753.7
56412.2
60588.5
63373.5
64612.2
92342.9
92185.3
93308.1
93346.3
95000.4
97152.6
98731
110107
2267.78
35072
49403.4
56594.9
61264.2
63505.8
64707.5
92302.9
92157.3
93175.1
93295.6
95568.2
97006
98515.8
109631
5850.41
37318.2
50597.4
57470.2
61511.3
63672.7
64828
92273.5
92123.2
93116.1
94187.2
95516.4
96934.8
98399.5
109259
22192.7
44994.9
52833
58517.4
61847.4
63867.5
64948.3
92286.9
92143.5
93118
94186.6
95526.2
96951
98422.8
109376
60963
51027.8
54464.1
59139.3
62110.5
63998
65078
92311.9
92159.5
93184.3
93335.3
95585.2
97055.5
98590.7
109907
2292.31
44741.6
53698.4
58875.9
62206.1
64045.4
65137.8
92403.7
92178.4
91867.3
93329.2
95077.8
97242.8
98854.6
110410
6809.08
38737.2
51873.5
57858
61431.1
63994.2
65139.9
92494.4
92289.8
91916.6
91547.2
93942.6
94920.8
98269.5
111124
4416.08
35953.5
49637.4
56696.5
61204.6
63896.5
65116.5
92572.7
92399.5
92043.9
91547.3
91279
94893.4
98340.8
111355
3049.35
35192.7
48853.1
56303.8
61065.9
63848.2
65101.8
92630.6
92469.1
92126.5
91610.4
91378.7
95054.3
98599.2
111625
4535.09
34918.9
48694.4
56163.2
61008.3
63828.1
65097.1
92660.4
92504
92167.7
91661.7
91424.1
95171.9
98745.6
111791
2633.98
34866.1
48732.9
56145.5
60992.7
63824.1
65097.5
88055.6
87291.5
85696.6
83114.5
82473.6
80722.2
82822.6
4299.9
26696.9
41390.1
50009.1
55965.9
59529
61187.8
88026.7
87258.7
85658.7
83071.9
82426.5
80663.8
82764.5
2200.06
26526.5
41277
49954.7
55918.8
59492.7
61156.8
87975.2
87204.7
85589.8
82999.3
82380.9
80585.2
82632
2208.77
26258.9
41222.6
49883.5
55845.3
59440.3
61107.4
87915.8
87138
85499.3
83066.8
82583.2
80449.2
82399.7
2225.53
26213.5
39685.3
49921.9
55777.5
59391
61057.9
87860.7
87079.1
85545.3
85199.3
83028
82471.8
83008.6
2238.31
23590.5
38797.6
49046.8
55735.4
59381.3
61033.5
87806.8
87121.9
86972.8
85345
84267.5
83372.1
82888.5
2260.35
23042.5
38160
48891.8
55340
59353.9
61061
87778.2
87100.9
86927.9
85367.4
84968.1
83346.7
82813.3
2821.16
22165.9
38107.9
48673.1
55438
59406.5
61120.2
87743.5
87071.9
86888.1
86217.6
85053.9
83327.9
82788.8
2302.45
22643.1
39074.9
49098.2
55662.6
59555.1
61215.2
87742.6
87066.9
86878.1
86218.5
85055
83342
82826.2
2295.64
25140.1
40641.7
49783.1
55977.8
59732.2
61376.2
87742.1
87063.8
86902.4
85359.4
84970.2
83374.8
82884.4
2340.34
27699.5
41256.7
50215.8
56245.1
59896.1
61503.1
87767.8
86985.9
85465.8
85132.1
84229.1
83396.7
82969.1
2343.71
26459.4
40811.3
50393.5
56580.1
60009.2
61565.6
87803.2
87028.2
85394.6
82996.2
82587.5
80615.6
82184.3
2360.19
25980.7
41026.5
50826.6
56499.9
59986.1
61594.8
87852.7
87087.1
85487.2
82926.9
82325.9
80578.2
82624.4
2373.89
26853.6
41924.1
50551.1
56444.9
59982.8
61620.1
87899.4
87138.2
85555.9
83010.4
82418.3
80713.3
82863.9
2379.09
26872.1
41768.1
50481.9
56434.6
59989.5
61641.7
87926.8
87170.6
85594.9
83056.6
82439.1
80804.9
83014.5
2401.41
26899.6
41787.6
50463.5
56436
59999.7
61655.5
84317.7
83013.1
80262.3
75431.8
72463.2
63815.8
58616.7
3069.25
2172.18
26994.5
40050.7
48865.6
54849.9
58457.6
60180.9
84285.1
82974.2
80208.6
75352.7
72381.2
63697.9
58473.9
2270.47
2195.54
26539.8
39891.4
48763.7
54763.1
58392.2
60124
84229.2
82914.1
80116.1
75202.5
72257.6
63502.6
58310.3
2264.95
2213.02
22306.9
39729.2
48564.5
54600.5
58276.3
60019.8
84168.8
82854.8
79977.3
75066.3
72093
63245.7
58163.4
2267.76
2231.36
22564.3
36446.4
48287.8
54374
58120.9
59884
84121.2
82788.5
79867.2
77904.3
71700.1
66225
60039.2
2289.84
2242.77
19382.6
34267.1
45778.5
54088.7
57961.4
59740
84072.5
82721
81687.5
77709.9
73717.8
67563.5
60073.8
2369.25
2267.77
16710.7
32036
45065.6
52421.1
57776.6
59641.8
84023.2
82655.8
81640.8
77521.6
74534.7
67517.2
60149.3
2563.02
2273.39
9670.49
30011
43502.5
52233.5
57701.3
59603.6
83973.9
82612.6
81576.6
78926.1
74447.9
67497.9
60207.4
3491.55
2243.3
9068.85
29678.8
43055.3
52333.7
57783.9
59665.3
83963.6
82595.3
81562.7
78922.9
74440
67522.7
60384.9
20646.1
2307.54
13813.7
31650.5
43800.4
52686.9
57994.8
59841.7
83961.9
82608
81602
77507
74515.7
67527.2
60270
2265.34
2237.07
18261.1
33762.1
45202
53140
58268.6
60049.3
83964.5
82625.7
79690.7
77760.6
73677.2
67537
60117.7
2374.67
3165.68
20850.5
34956.9
46788.1
54844.2
58537.9
60230.3
83980.7
82663.4
79777.3
74873.3
71824.8
63152
58190.7
2990.68
2336.76
21988.9
37441.4
49115.9
55026.1
58666.1
60378.3
84025.8
82708.4
79911.5
75008.3
72006.6
63377.5
58357.4
2711.86
2375.57
23029.1
40335.1
49165.1
55147.9
58777.2
60495.2
84074.4
82764.2
80002.9
75167.6
72225.3
63652.7
58622.4
3024.18
2388.83
26745.9
40309.4
49235.6
55232
58852.9
60575.7
84105
82802.8
80059.8
75253.5
72342
63854.2
58890.8
2353.32
2409.33
26881.2
40407.2
49261.9
55276.8
58894.6
60617.4
82347.7
80670.1
77073.5
70645.6
59419.9
47946.4
20583.9
2243.52
2182.21
30397.8
43142.1
51471
56953.9
60217.9
61773.4
82302.4
80613.4
76980.1
70496
59146.6
47607.3
20514.7
2261.6
2194.7
30028
42936.3
51314
56824.9
60119.7
61688.4
82225.4
80527.5
76853.5
70344.1
58821.7
47061.2
20233.7
2240.46
2217.48
24035.8
42571
51019.8
56577.2
59933.9
61527.2
82135.1
80445.5
76692.6
70166.7
63055.8
46624
20221.7
2250.22
2229.68
24018.3
37706.5
50501.5
56197.2
59664.2
61305.7
82058.3
80371.5
76621.3
72470.5
62965.9
50572.1
26868
2283.83
3461.46
19360.4
34553.8
46624.2
55698.7
59355.4
61055.7
81984.3
80291
77979.2
72361.6
65091
52562.9
27856.3
2278.84
2323.79
15192
31130.6
45517.7
52959.9
59059.5
60834.4
81904.7
80196.5
77937.6
72215.2
65965.9
52590.8
28226.6
2283.36
2706.81
2416.02
27599.8
42802.6
52490
58870
60704.8
81837.1
80128.9
77869.5
73447.6
65813
52410.6
27800.3
2351.86
2249.1
2315.31
26199.1
41509
52434.8
58884.2
60723.2
81813.7
80096.9
77836.1
73416.1
65792.4
52437.6
28099.1
2339.19
2239.24
8704.84
28500.4
42243.5
52792.5
59106.6
60899.2
81816
80107.1
77843
72127.3
65877.9
52504.2
28015.6
2318.84
2244.56
16206
31689.5
44434.7
53385.8
59454.2
61168.9
81821.4
80115.4
76318.3
72256.6
64895.5
52381.3
27662.3
2285.87
2330.69
19830.4
33965.3
47183.4
56288.7
59827
61463.5
81856.3
80147.8
76351.5
69777.7
62732.9
46474
21898
2289.46
2343.88
22155
38315
51132.2
56721.1
60116.6
61724.2
81927.3
80211.6
76506.7
69956.8
58413.3
46689
20191.4
2282.76
2386.34
24392.7
42990.2
51477.2
57021.9
60357.5
61936.7
81996.9
80295.6
76640
70133.8
58797.4
47178.4
20336.9
2258.72
2400.34
30013.1
43254.1
51662.9
57207.8
60514.4
62082.4
82041.1
80353.9
76741.2
70297.1
59109.9
47674
20642.1
2261.79
2422.62
30295.9
43426.3
51763.4
57307.6
60595.8
62157.2
82749
81117.3
77587
71318.2
60474.1
46661.8
9338.47
2272.11
13083.7
39960.1
50728.6
57579.7
61923
64447.4
65644.6
82686.5
81037.6
77445.2
71032.5
59997.1
45282.9
7430.7
2244.21
14108.3
39790.3
50516.5
57383.3
61759.6
64324.6
65538.6
82586
80924.3
77274
70838.1
60186.7
44220.2
9194.98
2258.2
2225.76
30714.6
50081.3
56987.3
61441.5
64089.2
65336.7
82467.5
80811.7
77116.9
70712
61614.2
43361.9
10262.2
2278.67
2510.13
30420.1
44008
56399.7
60965.7
63749.4
65058.1
82366.4
80727.5
77105.8
71684.7
61295.1
45771.2
20355.7
2299.73
2297.99
23914.2
39954.7
51676.3
60413.9
63354.1
64743.1
82272.6
80662.9
77532.8
71485.4
62496.2
47075.1
21612
2295.36
2213.57
19559
35941
50326.2
56970.5
63027.3
64457.8
82166.8
80538.9
77435.1
71295.5
62909.8
47029.5
25186
2304.8
2192.76
10754.5
32131.8
46932.9
56328.7
62769.1
64271.2
82081
80440.7
77337.4
71938.5
62632
46475.7
20455.8
2351.77
2315.62
2301.87
29788.5
45010
56152.4
62730
64253.2
82039
80388.8
77282.3
71878
62607.5
46675
20865.8
2274.92
2305.6
5181.3
31272
45531.3
56448.9
62932.1
64413
82039.4
80391.8
77260
71108.8
62764.6
47259
24393
9266.72
2273.36
17788.2
34850.3
48144.3
57079.8
63298.5
64704.3
82042.2
80358.7
76625.1
71214.7
62119.8
46873.5
21025.4
2273.39
5337.27
23119.2
37889.2
51729.3
60789.7
63698.3
65052.8
82093.8
80391.8
76592.9
70025.6
60771.8
42987.5
18915.7
2296.82
2473.96
26924.5
43972
56768.4
61333.1
64089.9
65387.8
82192.4
80489.1
76751.1
70172.8
59263.1
43066.3
9196.63
2276.42
5480.73
30540.1
50253.3
57276.8
61765.4
64422.5
65670.5
82289.6
80609.3
76951.5
70435.3
59288.7
44550.1
6938.96
2214.81
12643.7
39609.6
50643.5
57576.4
62048.7
64644
65867.2
82353.9
80696.1
77116.7
70748.5
59859.5
46088.5
7377.13
2202.52
13672.2
39978.9
50932.3
57761.9
62203.6
64760.2
65969.9
85611
84545.1
82311.4
78684.3
71162
62615
38247.8
2239.79
45615.7
59702.8
63377
67083.7
69298.2
70600.3
71242.6
85530.4
84434.4
82096.9
78143
69591.9
60566.4
14062.4
2274.98
41512.8
58780.2
63002.4
66829.3
69113.2
70467
71127.6
85408.3
84296.3
81901
77783.2
71743.7
56280.1
23624.1
2649.96
23445.1
47065.1
62826.2
66357.1
68762.3
70213
70910.5
85260.2
84127.6
81635.7
77459.2
69217
54074.9
21918.3
2305.74
11906.9
45137.7
55863.2
65785.7
68256.2
69859.5
70616.3
85129
83987.5
81532.4
76488.1
68387.6
53500.2
25854.2
2422.01
7954.23
35549.3
51124
60660.3
67754.5
69454.5
70293.1
85011.5
83900
80772.5
76021.1
67807.2
52916
24976.9
2264.15
4089.41
31142.9
46788.4
59418.2
63984.2
69164.9
70014.7
84874.1
83732
80495.3
75657.3
67264
51965.8
23886.1
2221.64
2216.58
23260.9
43295.7
55757.9
63366
68899.8
69810.2
84767.9
83598.8
80329.5
75350.7
66687.8
51052.9
23044
2334.79
2228.2
14766.3
40790.1
53615.6
63162.2
68835.2
69769.9
84710.5
83526.2
80241.4
75211
66524.7
51231
24732
2293.91
2258.32
17439.4
41406.3
53848.4
63342.7
68990.2
69900
84716.7
83534.1
80230.2
75250.8
66738.6
52302.8
34801.5
7759.31
2206.65
26262.7
44423.9
56406.2
63878.6
69315.8
70173.5
84729.1
83505
80838.8
75464.4
66904.3
52211.8
26699.2
6484.65
9942.26
32783.5
47682.8
60328.3
67938.9
69676.2
70509.7
84810.4
83599.3
80919.6
76406.8
67454.2
51936.7
23829.1
2309.31
10323
38776.4
55239.3
65927.5
68475.7
70096.8
70865.1
84943.6
83764.6
81212.9
76800.7
70154.3
53287.5
19411.9
2395.44
20616.5
45762.5
62765.2
66491.1
68979.7
70466.6
71178.4
85071.2
83925.6
81477.2
77292.2
68222.3
58027.8
2921
2379.63
39831.6
58480.2
62852.1
66890.4
69327.2
70720.9
71401.8
85158.2
84051.8
81742
77962.1
70052.3
63025.8
33491.4
2414.04
41636
59165.2
63264.6
67148.6
69520.2
70857.8
71520.9
90257.3
90096.5
89918.6
90952.5
92286.2
102363
148629
149469
109489
87678.1
80458.6
78976.7
78096.6
77848.2
77812.5
90165.2
89962.9
89687.6
90503.1
91117.8
104595
161978
140869
105122
86642.6
79793.5
78613
77895
77715
77701.1
90025.6
89787.5
89451.9
89253.8
90893.3
86874.6
104657
100494
84097.1
76837.6
78777.7
77879.4
77525.8
77465.1
77491.8
89842.3
89541.5
88974.2
88457.6
84411.1
81214.5
75605.3
36688.4
56069.8
72814.9
73438.2
77152.6
77025.1
77134.5
77214.9
89670.8
89315.5
88656.2
85689.5
83361.8
75934.7
55186.3
11876.7
36142.8
60416.7
68716.6
72998.3
76474.8
76761
76914.4
89524.4
89132.7
86865.1
85068.6
80686.5
73362.9
52961
2303.53
21918.1
54920.8
64536.9
72014.8
73333
76432.3
76675.8
89361.7
88930.3
86504.3
84566.2
78950.8
71155
48700.6
2447.73
6496.72
48917.7
62021.9
68720.9
72821.6
76197.6
76485.9
89244.9
88785.4
86258.9
83044.7
77936.7
68234.4
41899.3
3768.63
2208.44
43014.4
60047.4
66615.4
72614.2
76128.9
76436
89182.9
88705
86128.5
82813
77396.1
66964.5
40096.1
2313.71
2275.48
43123.4
59865.1
66573.5
72674
76229.1
76530.5
89203.1
88730.1
86128.9
83832
77491
67268.9
37102.5
2300.88
10585
48253.2
61652.9
68716.8
73018.6
76498.4
76766.4
89243.1
88787.2
87874.6
84124.3
78728.8
68873
43990.2
2621.63
24218.2
54592.6
64322.1
72300.7
76528
76878.7
77058.2
89370.6
88976.7
88177.2
87228.1
81793
76385.8
50495.7
2340.68
33414.6
63902.2
72357.6
77149.1
77129.8
77296.1
77403.8
89546.7
89231.3
88708.5
88164.1
89138.5
80041.1
75251.6
75077.6
70620.4
73641.8
78650.7
77930.2
77682.6
77668.5
77717.8
89703
89448
89058.1
89633.5
89526.1
102866
151986
132085
103078
86408.2
79595
78683.8
78083.9
77934
77946.7
89806.7
89607.5
89368.6
90441.6
91165.4
104540
155673
145818
107600
87902.6
80258.3
79054.5
78302.8
78078.4
78069.7
95371.6
96015.4
97344.9
101384
107867
114341
141917
146018
122349
104398
94801
89712
86471.9
85010.8
84395.4
95299.7
95917.2
97258.5
101437
107985
116223
150073
156359
123899
104705
94515.5
89483.5
86323.2
84900.1
84303.5
95173
95713.2
97126.9
100080
106768
113465
139239
169012
130765
104742
93341.1
88682.3
85991.2
84670.7
84121.9
94982.1
95440
96577
99188.9
100816
111811
138267
185009
132115
102473
91497.9
87805.6
85556.2
84377.2
83883.3
94785.7
95144.6
96021.6
96149.6
99420
104987
123470
188586
121321
96699.5
88930.1
85679.2
84927.2
84022.1
83601.9
94619.6
94839.9
94077.8
95212.6
96621.5
102153
130570
140615
99616.9
92310.5
86621.8
84846.7
83063.4
83639.1
83370.1
94456.4
94616.3
93787.8
94520.5
94541.5
99937.8
123195
173758
97401.4
90928.7
85318.5
83068.2
82687.3
83421.1
83202.6
94351.8
94486.5
93525.3
92996.4
93263.6
96042.7
101653
80135.6
153066
92198.3
84298.5
81864.7
82369.3
83347.9
83155.3
94298.3
94422.1
93405.8
92724.3
92630.2
94374
98958.1
125622
95402.6
87967.2
83433.3
81583.2
82373.4
83419.2
83223.5
94334.8
94490.7
93425.5
93904.6
92781.7
94655.4
100040
140170
94427.5
87433
83738.5
82544.3
82660.5
83663.6
83429.7
94408.5
94699.3
95382.4
94644.8
94815.9
96741.7
107770
188261
110180
91629
85443.2
84652.3
84911
84084.2
83710.5
94569.3
94960.8
95938
98264.6
98912.5
107932
125800
217847
127693
98839.6
90439.1
87775.2
85617.4
84514.5
84048.5
94759.1
95247.2
96546.4
99344.7
105848
111881
142386
179932
134743
104832
93482.8
88831.5
86175.1
84875.8
84343.7
94911
95499.6
96783
100896
106992
116158
149598
156154
124643
104964
94554.4
89701.9
86556
85135.4
84557.2
94999.7
95636.9
96949.8
101265
107434
115258
145593
147264
124337
105440
94945.2
90009.9
86740.6
85266.5
84668.2
99564.1
100451
101858
104878
110094
109267
112426
116824
111158
105595
100396
95982
92622.2
90896.5
90050.7
99559.8
100454
101978
105406
110718
110844
114613
120788
113067
106844
100778
96068.3
92617.7
90854.9
90006.9
99525
100354
102196
105353
110391
114094
119402
129298
117174
108831
100573
95818.4
92503.4
90706.5
89885.7
99421.9
100225
102007
105376
108213
116371
127626
142700
126130
110419
101189
95585
92342.6
90523.5
89733.8
99282.6
100022
101778
103038
108053
115615
131037
154375
131961
115054
102162
95113.4
92079.6
90270.4
89512.8
99145
99760.8
100113
102679
106273
114438
127938
148365
138948
118493
103178
95145.8
91166.5
89946.7
89315
99022.4
99593.3
99919.7
102461
105213
114530
132172
154380
138440
118523
102778
94552.6
90910.5
89773.6
89187.2
98947.8
99492.9
99778.7
101109
104906
114322
135438
175703
145624
117380
101566
93863.1
90688.7
89695.5
89152.7
98902.2
99446.7
99701.1
100954
104646
113953
135378
176815
143087
115027
100539
93496.4
90619.3
89745.2
89202.2
98931
99504.1
99716.2
102111
104570
113855
134738
170558
142330
113692
100127
93658.1
90752.4
89936.5
89372.2
99009.8
99730.1
101421
102341
105714
114159
134267
168432
140564
113782
100444
94421.7
91999.5
90339.3
89630.1
99130
99916
101675
105100
107835
117310
132781
158535
137231
113189
101034
95673.1
92473.2
90698.5
89917.5
99237.2
100062
101907
105177
110310
115965
124347
137327
121404
110776
101041
96162.2
92784.1
90967.5
90143.6
99296.4
100198
101738
105343
110488
111288
116083
122503
114451
107460
101214
96484
92938.4
91148.2
90296.9
99316.1
100229
101653
105032
109956
109346
112962
118000
113103
106579
100938
96498.5
92986.3
91221.1
90368.9
102264
102954
103824
104897
107748
106855
105920
109625
105593
103689
101294
98660.2
96359.3
95056.3
94308.2
102334
103051
104012
105511
108389
107804
107013
109516
106618
104733
101787
98916.2
96469.7
95082.7
94314.4
102440
103125
104465
106344
109247
110952
113906
117454
112100
107038
102417
99140.6
96589.9
95063.3
94294
102503
103246
104736
107296
109426
113863
119255
122321
116209
109043
103816
99481.2
96728.8
95046.2
94260.3
102523
103292
104970
106473
110377
115528