/*--------------------------------*- C++ -*----------------------------------*\
| =========                 |                                                 |
| \\      /  F ield         | OpenFOAM: The Open Source CFD Toolbox           |
|  \\    /   O peration     | Version:  v2012                                 |
|   \\  /    A nd           | Website:  www.openfoam.com                      |
|    \\/     M anipulation  |                                                 |
\*---------------------------------------------------------------------------*/
FoamFile
{
    version     2.0;
    format      ascii;
    class       volScalarField;
    location    "0.008";
    object      p;
}
// * * * * * * * * * * * * * * * * * * * * * * * * * * * * * * * * * * * * * //

dimensions      [1 -1 -2 0 0 0 0];


internalField   nonuniform List<scalar> 
449343
(
99191.5
99368.2
99675.3
100016
100246
100201
99611.8
98416.7
96653.8
94518.5
92295.5
90259.1
88606.6
87455.3
86866.9
99182.4
99360.2
99669.2
100013
100245
100203
99617.4
98426
96667
94534.2
92311.4
90272.8
88616.7
87462.3
86872
99182
99361.8
99674.6
100023
100260
100223
99643
98458.6
96707
94579.5
92357.7
90314.8
88651.8
87491.2
86897.4
99186.8
99369.3
99686.9
100041
100284
100252
99680.9
98504.8
96762.9
94642.6
92423.1
90374.8
88702.3
87533
86934.4
99192.2
99377.6
99700.3
100061
100309
100282
99718.6
98552.2
96821.3
94708.5
92491.8
90437.7
88754.5
87575.3
86971
99192.9
99380.7
99707.7
100073
100325
100303
99744.9
98586.7
96864.6
94759.4
92544.5
90485.5
88792.1
87603.7
86994.2
99184
99373.2
99702.6
100070
100324
100304
99748
98592.7
96876.5
94776.9
92561.2
90500.5
88800.1
87605.3
86992.3
99162.3
99351.5
99680.7
100047
100299
100277
99716.6
98557.9
96840.9
94745.6
92531
90469.9
88767.7
87571.5
86957.8
99127
99314.7
99640.8
100003
100251
100222
99657
98493.1
96770.5
94667.9
92451.9
90392.7
88694.6
87502
86890.3
99080.1
99265
99586
99941.9
100184
100144
99570.8
98397.6
96663.7
94551.9
92335.2
90277.9
88588.2
87403.3
86795.9
99025.8
99207.3
99522
99870.4
100104
100056
99472
98286.2
96539.5
94417
92196.6
90143.4
88463.6
87288
86686
98969.7
99147.6
99456
99796.6
100023
99967
99373.3
98175.5
96415.5
94282.9
92057.3
90008
88337.5
87170.9
86574
98917.1
99092
99395
99728.8
99949
99886.6
99283.8
98076.9
96305.9
94164.3
91934.1
89887.9
88224.9
87065.5
86472.9
98872.8
99045.5
99344.5
99673.4
99888.7
99821.2
99212.7
97998.8
96219.9
94071.9
91839
89795.1
88137.2
86982.8
86392.9
98840
99011.6
99308.5
99634.7
99847.4
99777.1
99165.4
97947.9
96165
94013.8
91779.9
89737.2
88081.8
86929.8
86341.4
98985.1
99210.1
99617.9
100115
100539
100712
100267
99024.3
97022.3
94555.7
92036.2
89798.3
88030.8
86821.7
86209.9
98976.8
99203.2
99613.6
100114
100542
100719
100277
99039.5
97043
94580.3
92060.5
89818.6
88045.7
86832.2
86218
98977.9
99207
99622.5
100130
100564
100746
100312
99083.9
97098.5
94644.4
92125
89874.4
88090.4
86868
86249
98984.9
99217.6
99640.1
100156
100598
100785
100358
99141
97173.5
94733.6
92217.2
89955
88154.7
86919.4
86293.6
98992.9
99229.8
99659.9
100185
100635
100823
100409
99208.3
97248.4
94830.3
92320
90043.4
88223
86972.3
86338.6
98996.1
99236.7
99673.9
100208
100664
100856
100447
99260.6
97320
94906.5
92403.9
90116.2
88276.1
87010.2
86368.9
98989.2
99232.2
99674
100212
100668
100869
100462
99279.6
97349.4
94945.1
92449.3
90149.3
88293.6
87017.7
86371.1
98968.2
99211.5
99653.3
100192
100646
100844
100430
99191.8
97306.4
94911.2
92421.8
90120.1
88261.4
86984.1
86336.4
98932.5
99173.8
99612
100144
100593
100783
100362
99166.9
97228.1
94822.5
92328.2
90031.3
88180.5
86908.7
86264.3
98884
99121.4
99551.8
100075
100517
100690
100259
99052.1
97095
94677
92173.9
89891.5
88059.1
86799.8
86162.2
98827.7
99060.2
99481.6
99993.2
100425
100588
100148
98922
96941.3
94513.6
92001.6
89729.8
87917.1
86673.2
86043.3
98769.4
98997.2
99409.6
99910.5
100333
100493
100039
98795.4
96805.6
94352.5
91831.2
89570.7
87775.5
86545.5
85922.9
98715.1
98939
99344
99835.7
100250
100406
99945.1
98690.9
96683.1
94213.4
91685.8
89433.3
87651.2
86431.8
85814.8
98669.6
98890.7
99290.5
99775.5
100183
100335
99868.1
98604.8
96586.1
94106.6
91576.4
89329.6
87556
86343.5
85730.2
98636.2
98855.9
99253.1
99734.6
100139
100288
99817.9
98550
96526
94042.1
91510.9
89266.8
87497
86287.8
85676.4
98468.8
98803.8
99442.6
100309
101222
101951
101943
100576
97931.6
94594.4
91346.4
88650.2
86632.5
85299.7
84638.7
98462
98799
99442
100314
101234
101967
101964
100605
97970.6
94640.2
91390.4
88685.5
86658.1
85318.2
84653.5
98466.1
98807.3
99458.6
100342
101275
102015
102016
100680
98061.9
94752.2
91499.1
88773.1
86724.4
85369.5
84697.2
98477.4
98824.5
99487.8
100388
101337
102078
102076
100779
98175.6
94909.5
91663.7
88903.9
86820.3
85442.5
84759
98490.5
98844.8
99522.6
100442
101403
102136
102117
100844
98290.4
95102.2
91854
89053.4
86926.8
85519.9
84822.6
98498.9
98860.3
99552.5
100487
101466
102189
102179
100947
98436.3
95251
92043.4
89189.8
87015.2
85579.8
84868.9
98495.7
98861.7
99562.1
100514
101486
102227
102215
100997
98511.9
95324.8
92187.2
89265.5
87058.1
85600.5
84879.8
98476.8
98844
99545.5
100500
101475
102224
102228
100838
98472.6
95292
92160.4
89238
87026.9
85567.3
84844.8
98440.1
98803.9
99499.7
100444
101405
102130
102095
100851
98348.2
95169.3
92036.8
89122
86926.3
85477.9
84762
98389
98746.6
99430.4
100351
101309
102005
101957
100686
98144.3
94965.8
91755
88920.6
86766.3
85345.9
84642.8
98328.8
98677.9
99344.9
100246
101182
101882
101823
100507
97916.1
94720
91475.5
88692
86584.8
85193.2
84504
98266.5
98607.9
99259.5
100141
101063
101773
101731
100394
97756.1
94475.4
91228.1
88477.9
86407.9
85041.8
84364.8
98209
98544.3
99183.7
100049
100956
101669
101634
100261
97613.4
94284.3
91023.6
88299.4
86257.5
84909.6
84241.6
98161.2
98492.4
99123.7
99977.4
100873
101582
101545
100155
97492.5
94141.5
90880.1
88171.5
86145.6
84808.9
84146.5
98126.7
98455.9
99083.2
99931.5
100822
101527
101488
100091
97419.9
94061.7
90800.3
88097.6
86078.7
84747.1
84087.4
97509.7
98004.8
98990.2
100442
102234
104042
105220
103623
99547.7
94379.2
89892.9
86553.6
84233.1
82769.1
82063.2
97504.3
98002.4
98993.8
100455
102257
104073
105251
103674
99612.1
94456.9
89965.5
86609.5
84273.4
82798.7
82087.2
97511.5
98015.6
99020.1
100503
102328
104159
105339
103803
99775.8
94661.9
90144.6
86742.5
84369.9
82871.9
82148.9
97527
98040.1
99065.1
100581
102436
104289
105319
103998
99958.1
95018.9
90448.6
86948.9
84511.5
82975.7
82234.9
97545.5
98070.2
99121.2
100675
102578
104389
104594
103792
100784
95455.4
90826
87206.1
84674.5
83088.2
82324.9
97559.5
98096.5
99180.1
100793
102717
103615
104630
103946
101083
96805
91293.1
87463.4
84822.5
83179.1
82393.4
97560.3
98107
99209.3
100852
102063
103704
104703
104050
101238
97020.1
92596.6
87599.2
84897.7
83217.4
82415.9
97543.3
98094.1
99201.9
100847
102048
103730
104740
103963
101246
97044
92594
87569.7
84874.7
83184.5
82377.1
97506.9
98051
99147.3
100780
101990
103640
104613
103909
101095
96875.8
92441.2
87404.9
84732.1
83071.7
82280.2
97454.2
97986.6
99059.7
100653
102546
103472
104436
103706
100820
96577.1
90863.9
87106.8
84516.8
82906.7
82137.2
97390.3
97909
98946.7
100478
102345
104099
104330
103486
100516
94938.4
90328.3
86758.1
84272.2
82718.3
81971.2
97324.7
97831.3
98842.6
100336
102157
103962
104927
103547
99443.2
94487.9
89925.8
86453.4
84046.8
82534.8
81806.5
97264.5
97762.1
98753.2
100214
102010
103803
104940
103350
99278.6
94136.8
89612.4
86219.1
83862
82377.9
81662.8
97214.9
97706.6
98685.2
100127
101902
103686
104824
103206
99106.8
93924.5
89418.5
86059.9
83728.8
82260.9
81553.8
97179.5
97668.4
98641.3
100075
101840
103619
104760
103128
99018.8
93823.2
89319.2
85972.6
83652.1
82191.3
81487.8
95906.1
96575.5
97958.6
100145
103205
107079
111118
108891
101991
93169.4
86960.1
83082.6
80610.8
79134
78448.9
95900.9
96573.7
97964.5
100164
103241
107131
111165
108936
102093
93295.2
87066
83159.2
80666.1
79175.4
78483.1
95908.4
96588.9
97996.4
100228
103356
107278
111310
109081
102364
93598.2
87320.5
83337
80794.2
79272.4
78564.3
95924.4
96616.5
98053.1
100359
103613
107583
109137
109397
104114
94498.6
87863.1
83643
80986.1
79410.4
78677.1
95943.2
96649.5
98128.7
100508
103861
106179
109377
109687
104691
97054.4
88516.8
84020.6
81214.9
79560.6
78795.9
95958.5
96686.8
98226.5
100787
103061
106509
109673
109973
105207
97843.9
90992.8
84452.8
81419.1
79690.1
78888.3
95957.2
96690.4
98242.5
100197
103150
106715
108817
109444
105713
99082.7
91564.2
86427.7
81490.8
79729.4
78918
95944.9
96685.1
98295.6
100184
103188
106755
108881
109502
105863
99252.8
91730.1
86509.9
81565.4
79680.9
78877.5
95908.1
96638.6
98183.8
100127
103116
106652
108740
109312
105574
98981.8
91431.9
86299.9
81270.3
79550.6
78758.8
95861.2
96584.3
98111.8
100648
102923
106391
108526
108966
105068
97470.4
90703.2
83953
81025.5
79364.7
78593.2
95798.9
96498.7
97963
100314
103618
106015
109108
109242
104210
96758.1
87808.1
83432
80726.6
79134.6
78398.8
95736.1
96421.5
97843.1
100123
103335
107241
108831
109041
103833
93812.8
87207.9
83049.5
80453.8
78920.6
78208.5
95677.4
96351.2
97744.5
99952.5
103045
106917
110898
108736
101817
93004.7
86716.7
82752.2
80237.4
78739.3
78044.2
95628.8
96295.2
97672.7
99851.1
102898
106747
110742
108532
101569
92731.5
86479.6
82570.3
80086.4
78606.8
77921.4
95594
96257.1
97627.5
99793.9
102826
106664
110669
108426
101454
92597.4
86360.9
82472.7
80001.7
78529.9
77848.7
93401.2
94195.7
95899.3
98784.4
103312
110427
116377
122329
109388
88697.2
81336.9
77671.3
75482.8
74289.9
73771.4
93393.7
94191.3
95902.2
98802.4
103357
110488
116417
122380
109463
88841.9
81460
77759.6
75549.7
74341.8
73815
93396.5
94200.9
95926.2
98849
103461
110654
116540
122532
109660
89109.5
81701.2
77941.7
75698.9
74458.5
73913.9
93405.6
94223.2
95979.3
98986
103952
108691
116893
122921
110075
93949.2
82358.6
78237.8
75927
74628.1
74051.5
93412.7
94236.7
96020
99150.1
102849
109129
117505
120900
111953
95602.7
86241.7
78717.8
76164.9
74802.1
74195.6
93421
94249.5
96132.4
98826.9
103114
108415
115995
120472
113171
98925.4
87344.3
81612.3
76427.7
74938
74306.7
93408.8
94230
96153.4
98919
103350
108558
115325
121019
114569
100945
89644.7
82075.1
76514
74969.6
74339.2
93388.1
94194.8
96182.8
98991.8
102711
108098
115449
121243
115001
101320
89880.3
82138.6
78524.9
74835.7
74271.5
93366.7
94186.5
96102.8
98918.7
102653
108496
115288
120875
114348
100674
89405
81766.9
76190.4
74744.6
74150.7
93335.7
94159
96030.7
98729.3
103136
108327
114911
120209
113186
99480.5
88523.7
81218.5
75907.8
74549.3
73969
93285.6
94104.1
95873.2
98976.7
102709
109037
115367
120522
111680
97203
85782.7
77915
75569.3
74313.9
73753.8
93238.4
94050
95792.6
98773.2
103696
108482
116665
122555
109610
93597.2
81529.2
77526.8
75321.3
74088.8
73544.3
93188.7
93986.9
95699.1
98599.5
103175
110314
116261
122174
109259
88463.8
81028.4
77295.6
75095
73889.4
73363.4
93146.4
93938.1
95636.6
98516.8
103042
110132
116062
121989
109045
88270.6
80843.4
77137.9
74940.5
73747.4
73229.8
93114.5
93903.1
95594.9
98461.2
102962
110042
115973
121889
108915
88136.1
80725.6
77041.8
74852.6
73665.3
73151.5
89764.2
90537.1
92244.3
95301.3
100397
107407
123973
154353
113932
81254.5
71019.6
69533.9
68630.2
68264
68130.9
89752.4
90526.8
92237.5
95300.9
100412
107427
123986
154371
113959
81335.1
71125.3
69617.1
68704.5
68324.2
68182.4
89744.2
90518
92229.2
95277
100377
107488
124010
154448
114118
81603.3
71277.1
69787.2
68862.4
68452.7
68295.7
89736.4
90511.6
92225.6
95159.6
99935.9
108030
124218
154550
114302
82326.9
75380.9
69940.2
69098.9
68635.3
68453
89713
90471.9
92115.7
95372.2
100100
107354
121633
154933
116300
87535.9
76261
72982.8
69278.1
68823.3
68615.2
89683.2
90378.8
92698
95515.9
99989.6
107534
120594
150731
123301
92129.2
80119.5
73699.1
71613.6
68935.2
68740.2
89666.3
90359
92739.2
95582.7
100115
107285
120833
151717
127878
95757.8
82948.2
76084.1
71864.4
69012.2
68797.8
89630
90325.4
92807.3
95625.8
100148
107329
120924
152165
130336
97312.3
83586.9
76269.5
71930.9
68940.9
68692.9
89633.9
90326.7
92729.7
95604.7
100125
107260
120759
151502
127180
95138.2
82603.9
75803.6
71593.9
68769
68586.2
89614.3
90302.9
92662.9
95448.4
100003
107100
120449
150460
122746
91500.3
80777
74898.9
71147.8
68507.1
68372.8
89611.2
90369.5
92002.1
95279.1
100016
107299
120178
149788
120664
89075.6
77960.8
72246.3
68609.9
68291.4
68142.1
89597.7
90369.6
92075.5
94989.2
99690
107788
121239
154237
114322
86006.7
74606.7
69141.1
68438.5
68061.6
67920.2
89567.3
90336.7
92038.2
95070.7
100144
107292
123758
154096
113844
81212.6
70578.2
69101.7
68228.9
67862.3
67727.4
89537.8
90307.8
92008.7
95056.3
100145
107169
123660
154021
113668
80941.4
70503.4
68982.6
68081.9
67717.6
67585.9
89510.6
90278.9
91976.8
95018.9
100092
107078
123605
153950
113554
80783.8
70421.9
68904.3
67994.1
67631.8
67503.1
84918.7
85419.2
86512.4
88455
91521.8
98372.1
105680
102421
23720.2
51558.2
56166.8
58801.3
60437.7
61457.3
61914.9
84904.3
85404.8
86498.8
88439.5
91515.7
98356.9
105671
102345
23694.3
51620.7
56244
58897.5
60527.9
61527.1
61974.4
84887.7
85381.2
86474.2
88427.1
91480.9
98334.1
105661
102335
23628.2
51914.8
56507.7
59169.2
60727.2
61678.6
62105.5
84865.7
85338.4
86422
88246.6
92938.2
98064.4
105550
102335
23927
52697
58758.3
59756.4
61060.1
61899.2
62293.7
84821.5
85266.2
86284.6
89556.6
92855.9
98702.7
106607
102362
25362
57915
61801.8
62212.8
61507.1
62171
62497.8
84743
85181
87585.7
89569.4
93499.4
99168.1
106675
102290
31233
63836.4
65515
63159.1
63528
62442.9
62665.9
84740.4
85169.5
87640.4
89582.1
93877.1
99291.1
106799
102230
77038.9
73075.4
68500.4
65460.7
63804.5
62596.2
62767.1
84721.5
85142.2
87629.9
90264.7
93944.8
99362.4
106868
102097
88415.3
76521.5
69584.1
66723.9
63820.1
62572.6
62709.4
84719.4
85149.2
87608
90233.6
93922.4
99330.7
106824
102187
68995.4
71305.1
67904.3
66073.8
63485.9
62357.1
62560
84704.2
85139.4
87583.7
89513
93807.2
99201
106672
102232
30228.8
62428.5
64830.5
63940.1
62997.1
62017.9
62297.6
84746.2
85194.6
86212.6
89486
93392.2
99028.9
106490
102134
26470.6
57857
62287.5
61410.2
60826.6
61634.7
62020.9
84761.6
85234.6
86323.3
88137.4
92788.7
97697.5
105237
102166
25406.8
54147.3
57900.6
58971.3
60387.4
61322.5
61759.7
84749.2
85240.7
86326.8
88274.1
91315.9
97987.2
105361
102055
23961.4
51543.6
55816.6
58487.6
60099.1
61091.8
61540.3
84730
85228.1
86315.9
88248
91311.3
98120.2
105395
102027
23651
51310.5
55658
58286.1
59918.3
60928.7
61384.5
84705.6
85202.9
86290.9
88224.9
91278.1
98095
105368
102005
23498
51196.6
55622.2
58198.8
59817.7
60835.6
61295.3
79113.2
79106.1
79071
79017
79233.5
83636.7
87436.3
100389
5040.02
30563.8
42081.8
48361.4
52449.2
54829.4
55893.6
79102
79094.7
79064.4
79015.4
79254
83625.2
87423.8
100187
3540.94
30644.5
42169
48494.1
52555.9
54908.1
55960.3
79094.9
79087.2
79066.5
79072.7
79308.4
83608.3
87414.8
100186
2397.2
30951.9
42535.8
48826
52798.2
55090.5
56110.8
79089
79062.9
79060.1
79231.8
82239
83697.8
87356.2
100200
2476.49
31794.8
43694.5
49618.1
53236.5
55384.2
56341
79074.6
79036.7
79128.9
81413.2
82479.1
85728.7
88666.7
100420
2371.11
33452.3
45811.7
51493
53912.2
55775.1
56616.8
79045.7
79093.7
80902.3
81510.6
83953.6
86809.2
88882.6
100413
14779.4
39443.2
48818.7
52626.3
55386
56203.9
56870.2
79070
79119.4
80947.7
81611.1
84799.9
87026.1
89183.4
100714
46353.4
47359.6
51638.9
54181.7
55757.5
56403.9
57005.7
79066.6
79116.6
80947
82737.3
84900.3
87215.8
89454.1
100940
60213.2
49221.4
52550.6
54883.7
55855.1
56397.5
56974.8
79062.1
79117.6
80935.3
82716.9
84905.1
87231.5
89485.1
101022
45721.3
45182.7
51034.2
54297.2
55535.5
56158.2
56806.9
79029.9
79078.5
80902.2
81589.3
84789.5
87048.6
89227.4
100779
6922.36
37759.8
48215.9
52726.9
54956.3
55773.2
56514.1
79039.3
79010.4
79117.3
81434.9
83941.4
86807.9
88875.3
100407
2369.89
33231.8
45785
50818.2
53220.7
55255.1
56159.4
79027.5
79003
79005.7
79189.2
82330.7
83862.8
87648.4
100345
4518.37
31350.8
43243.7
48852.2
52604
54837.3
55831.4
79000.8
78992.4
78969.8
78978.1
79219.1
83531
87278.7
100047
2872.11
30611.9
41911.4
48206.1
52212.6
54533.6
55570.9
78973.5
78966.2
78934.3
78883.7
79119.6
83458.3
87239.1
99983.3
2393.1
30365.7
41637.7
47932.6
51983
54338.4
55395.2
78947.5
78939.6
78902.3
78845
79057.7
83433.2
87205.4
99943.8
2489.3
30277.8
41590.6
47804.1
51863.8
54235.5
55298.5
73015.6
72441.4
71262
69458.3
69420.6
69018.2
71985.1
2295.47
22337.5
33966.8
41331.9
46487
49606
51061.2
73012.1
72438.4
71267.1
69475.4
69426.8
69018.9
71979.2
2297.55
22438
34076.3
41468.4
46585
49680.1
51124.3
73026.5
72461.4
71300.5
69532.5
69526.6
69087.3
71994.8
2297.47
22451.9
34400.8
41735.4
46801
49853.8
51267.7
73063.3
72502.8
71338.5
69748.9
70055.7
69184.8
71992.8
2295.61
22942.2
34472.7
42360.8
47176.5
50141.8
51492.2
73124.4
72571.9
71602.7
72086.5
70865
71522.9
72964.3
2297.15
22052.1
35105.5
43091.4
47686.8
50512.3
51768.8
73186.6
72791.3
73395.8
72504.4
72580.2
72902.3
73426.8
2331.06
24183.7
36450.7
43809.7
48452.5
50826.2
52034.9
73244.3
72880
73434.8
72772.5
73716.5
73512.5
74259.3
2158.41
25980.1
37887.1
44577.9
48779.1
50982.8
52153.9
73262.3
72911.1
73485.7
73855.4
74064.8
74097.2
75271.1
4841.75
26089.7
38345.7
44975.2
48784.1
50978.4
52126.8
73255.8
72896.9
73475.9
73869.8
74106.6
74197.8
75488.7
2247.99
25612.3
37656.2
44604.5
48559.4
50777.3
51978.4
73194.6
72806.5
73418.7
72771.1
73804.4
73690.5
74579.7
2315.85
23755.1
36200.8
43654.7
48167.9
50461.3
51717.1
73128.4
72590.7
71650.6
72237.3
72583
73021.9
73604.2
2283.13
21784.9
34756.8
42630.4
47141
50059.4
51358.8
73046.9
72489.4
71336.2
69766.6
70342.1
69464.3
72054
2298.8
21413.7
34063
41767.1
46643.1
49656
51030.1
72981
72418.1
71257.8
69499.5
69614.6
69102.5
71994.4
2296.47
22174.8
33906.3
41215.1
46283.7
49348.2
50770.5
72934.2
72362.8
71193.2
69403
69417.2
68972.2
71902.9
2297.26
22177.7
33627.3
40971
46063.8
49153.2
50597.1
72901.4
72327.7
71149.5
69343.9
69296.9
68890.5
71841.2
2295.29
22133.8
33532.6
40828.5
45946.6
49050.6
50501.2
67503
66377.3
64040.9
60092.1
58319.4
52066.9
48903.7
2292.54
2294.88
19467.4
30370.9
37959.6
43283.5
46591.2
48184.4
67502.9
66378.5
64043.6
60098
58317.3
52058.3
48896.8
2499.06
2295.63
19682.6
30450.4
38062.9
43348.2
46642.4
48227.2
67526.4
66408.9
64070.2
60097.8
58365
52073.5
48909.4
2688.12
2294.42
17260.9
30764.6
38223.6
43489.7
46760.4
48325.9
67578.3
66483.6
64098.8
60223.9
58492.7
52135.2
49012.9
2704.77
2297.52
17924.8
29398.6
38524.6
43717.6
46956.4
48480.6
67685
66593.3
64278.8
63304.6
58757.5
55178.7
51147.7
3211.81
2306.89
16712.7
29058.1
38056.2
43991
47201.2
48666.5
67797
66793.2
66369.8
63559.1
60963.9
56971.1
51905.9
2998.61
2326.01
17394.8
29319
38405.1
43878.8
47363.1
48848.5
67872.1
66900.4
66486.5
63779.3
62246.7
57971.4
53544.7
2166.09
2289.07
17829.5
30004.2
38382.5
44086.7
47430.2
48914.4
67903.5
66957.1
66560.4
65178.7
62759.2
59330.4
57527.2
6374.92
2322.39
18837.1
30394.2
38418.4
44102.7
47416.6
48886.7
67899.8
66937.9
66561.9
65218.5
62849.1
59638.4
58985.4
9816.28
2156.25
18516.3
30129.8
38234.7
43965.3
47286.5
48777.1
67834.9
66853.8
66501.6
63827.3
62443.4
58413.3
54582
21268.3
2311.07
17554.2
29366
37915.8
43701.8
47095.2
48592.8
67728
66647
64372.3
63522.9
61054.7
57221.8
52264
2394.24
2288.22
16641.6
28587.7
37740.5
43604
46842.8
48324.1
67609.7
66516.5
64145.9
60301.5
58632.1
52397.8
49394.2
2874.43
2288.12
16862.4
29140.2
38106.3
43298.1
46547.3
48078.8
67531.6
66421.9
64096.5
60132.8
58414
52130.7
49019.5
2285.17
2293.91
17279.1
30408.8
37808.1
43049.7
46314.2
47878.9
67479.6
66358.9
64031.7
60091
58341.6
52046.6
48888.1
2584.34
2296.02
19337.2
30082.1
37631.1
42882
46161.9
47741.8
67444.8
66322.1
63990.6
60043.6
58269.5
52005.3
48834.1
2309.35
2294.7
19196.1
30002.5
37511.6
42789.2
46076.6
47662.1
63397.5
61767.9
58353.2
52485.7
42719.7
35135.3
14431.6
2260.01
2300.32
19441.8
29919.6
37350.7
42644
45937.3
47531.2
63389.7
61760.4
58340.1
52469.5
42724.6
35096.1
14374.5
2250.66
2300.09
19441.8
29879.8
37392
42663.6
45954.6
47543.7
63398.9
61773.7
58345.9
52434.2
42753.5
34844.4
14326.4
2245.37
2299.61
16750.6
29927.2
37470.7
42728.5
46001.5
47581.5
63430
61832.9
58347.3
52525.1
47629.7
34786.3
14282.6
2256.25
2295.42
16500.3
27492.2
37564.4
42820.1
46085.6
47646.1
63511.5
61931.4
58464.5
55672.2
47923.2
38847.1
20629.3
2289
2316.32
14683.8
26550
35970.9
42916.4
46210.2
47723.6
63607.7
62014.6
60603.4
55880
50521.9
41157.7
21909.3
2335.95
2311.03
14996.6
26310.8
36150.5
41896.5
46263.5
47811.5
63666.7
62078.8
60784.4
56048.5
51976.6
42140.6
23096.1
2331.74
2291.73
15597.7
26810.9
35570.4
42012.2
46272.2
47822.6
63698.7
62133.6
60879.1
57728
52447.1
43750.7
28859.9
2312.83
2237.2
17924.9
27265.3
35357.2
42033.4
46250.4
47793
63709
62130.7
60901.1
57776.8
52571.1
44247.7
30651.7
7563.05
2292.61
16340
27073
35269.5
41958.3
46168.9
47716.9
63678.1
62100.4
60857.8
56125.7
52227.3
42784.5
24518.9
2278.7
2300.66
15296.9
26509.7
35349.4
41792.1
46063.5
47608
63593.4
62027
58595.8
56039.3
50671.3
41467
22204.3
2308.96
2304.64
14677.9
25993.2
35780.5
42633.8
45922.9
47438.7
63504.7
61918.4
58451.9
52664.2
47939.9
35218.6
16045
2282.17
2315.07
15220.1
27345.7
37248.5
42479.2
45737.1
47295.3
63457.4
61842.9
58435.1
52538.5
42859.7
34961.6
14368.9
2253.57
2299.57
16620.2
29658.6
37123.2
42345.2
45602.9
47176.8
63423.2
61801.4
58394.8
52538.7
42791.2
35060.1
14357.1
2246.85
2299.8
19149.4
29587.5
37004.6
42238.7
45511.4
47092.9
63397.8
61775.4
58373.1
52518.4
42753.1
35135.7
14396.8
2248.17
2299.62
19123.7
29599.1
36934.3
42183.2
45454.9
47039.6
61431.4
59537
55519.9
49067
37814.7
28099.2
2316.74
2235.64
2300.54
20456.7
31841.8
39206.5
44380.4
47524.1
49032.2
61407.5
59514.2
55493.4
49011.7
37904.8
27998.6
2315.7
2236.93
2300.99
20297.2
31699.2
39180.3
44346.4
47503.7
49012.7
61388.2
59490.5
55470.6
48745.5
38456.8
27753.6
2321.44
2262.53
2300.95
16627.3
31631.9
39214.6
44333.8
47484.7
48992.8
61380.4
59522.1
55495.3
48866.6
41913.6
27646.5
3367.5
2280.99
2293.8
16955.7
28280.3
39190.3
44315.8
47471.5
48978.3
61416.9
59597.1
55619.8
51238.9
42070.2
30702.9
13462.3
2287.56
2291.16
14692.1
26875.1
36710
44308.3
47496
48967.1
61476.8
59650.4
57136.3
51371.9
44093.5
32292.9
13829.6
2297.3
2297.28
14953.1
26334.1
36758.9
42505.9
47475.8
48975
61506.4
59680.7
57239.6
51494.8
45205.3
32817.3
14211.6
2274.6
2299.22
15475.1
26748.4
35748.2
42535
47438.8
48938.5
61535.3
59719.7
57325.7
52841.3
45465.4
33566
15495
5180.28
2296.68
16041.1
27187.6
35352
42550
47404.8
48902.5
61560.8
59743.3
57368
52885.5
45559.2
33886.8
16643.2
2286.77
2311.86
16142.2
27215.9
35342.4
42518
47356.1
48850.5
61573.4
59760.5
57345
51620.3
45407.8
33253.5
15155.2
2284.53
2305.79
15581
26767.4
35695.8
42430.9
47308.3
48801
61536
59732.3
55796.6
51580.2
44252.4
32527
13898.4
2325.64
2294.12
14828.1
26261.3
36589
44081.7
47247.5
48715.1
61501.8
59657.8
55655
49067
42165
28304.4
12525
2286.12
2282.2
15518.4
28223.1
38924.8
44014.7
47155.9
48657.1
61499.9
59617.3
55628.7
48927.9
38651.1
27804.5
2326.62
2268.34
2301.07
16807.2
31403.6
38888.2
43977.1
47111.8
48613
61497.7
59617.6
55622.2
49174.1
38046.6
28263.4
2315.22
2237.01
2300.82
20226.2
31431.5
38804.2
43939.8
47080.2
48581.8
61490.1
59609.8
55619.3
49199.9
37946
28339.3
2315.51
2234.15
2300.5
20263.6
31513.2
38787.9
43930.4
47057.3
48557.5
62102.5
60334.3
56537.5
50526.8
39873.3
26271.1
2297.06
2292.7
2307.03
26466
36758.6
43777.9
48490.2
51216.7
52514.8
62058.2
60286.2
56475.5
50411.8
39796.9
26028
2297.48
2291.31
2303.45
26190.5
36620.1
43687.3
48399.4
51158.5
52463.6
62002.7
60212.9
56396.5
50042.4
40686.5
27012.8
5793.73
2269.97
2302.22
20050.8
36567.2
43697.4
48304.8
51081.7
52390.7
61951.7
60170.1
56334.6
49965.9
41914.1
27234.9
5647.88
2276.26
2296.74
20036.7
32120.6
43544.9
48175.9
50978.7
52304.2
61936.6
60174.9
56332.6
50998.3
41664.8
29327.4
12189.8
2286.41
2297.96
16800.9
30065.1
40273.8
48073.3
50908.4
52213.6
61949.4
60180.6
56896.1
50898.1
42749
30312.1
12572.3
2306.64
2295.51
17048.9
29158.4
40135.3
45611.4
50824.2
52146.5
61945.7
60167.8
56902.3
50848
43287.5
30481.7
13356.5
7200.96
2297.01
18165.4
29590.4
38671.1
45519.4
50731.5
52061.1
61971.4
60193.7
56939.3
51644.9
43257.7
30491.6
13840.5
9593.58
4048.68
21284.5
30458.7
38118.5
45490.1
50675
52011.5
62014.4
60247.1
57007.4
51696.3
43305.6
30357.8
11892.5
2326.17
2289.92
22873.8
30895.7
38195.5
45491.1
50655
51979.2
62076
60327.9
57067.5
51076.4
43431.9
30448.8
12959.7
2306.85
2295.69
19396
30119.4
38765.9
45506.2
50669.1
51984.7
62088.7
60353.6
56568.6
51259.8
42975
30483.8
12865
2272.66
2299.12
17246.5
29328.6
40118.4
47857
50672.3
51973.4
62119.1
60360.8
56566.9
50266.4
42099.3
28020.2
11344.9
2288.51
2299.63
17956.6
32008.6
43278.2
47877.9
50670.2
51992.3
62164
60399.5
56634.5
50347.7
41040.4
27621.8
6921.04
2267.34
2302.54
19981.7
36278
43337.3
47945.6
50711.4
52017.6
62200.7
60453.2
56693.7
50702.5
40190.4
26532.3
2297.4
2293.77
2305.36
25956.2
36188.6
43270.4
47983.4
50734.7
52036.3
62214.7
60471.9
56725.2
50788.4
40204.7
26669.5
2297.21
2293.71
2305.96
26154.1
36336.8
43316.8
48026.9
50747.2
52042
65330.7
64020
61121.1
56609
48008.3
35743.9
2309.76
2304.39
15183.3
40100.4
46052
51595.9
54942.3
56812.5
57718.5
65262.8
63934.6
60996
56340.1
47598.2
34750.5
2306.23
2306.99
15786.9
40093.1
45728.4
51370.2
54780.8
56712.7
57633.9
65166
63804.8
60872.3
55766.5
48503.1
33687.2
8852.67
2264.48
2307.42
29250.6
45717.5
51186.6
54581.5
56580.3
57508.9
65057.2
63661.8
60634.6
55588.8
47167.4
32930.5
10896.9
2272.96
2301.97
27715
39941.8
50867
54303.1
56381.4
57350
64980.7
63574.7
60505.3
55035.3
46493.2
33551.2
14628.9
2274.75
2303.41
22356
36997.7
46823.7
54105.3
56212.7
57182.7
64941.3
63530.6
59964.1
54588.3
46415.8
33711.5
15049.9
2331.98
2307.29
22118.4
35261.4
46355.8
51037.4
56072.5
57047.5
64903.5
63476.8
59819.5
54331
46201.6
33160.9
16372.4
2297.14
6428.48
22788.9
35033.9
44208.3
50741.4
55908.9
56905.5
64926.4
63496.9
59816.8
54443
45858.7
32327.9
13915.3
2283.86
2273.75
25729.3
35455.2
43219.4
50600.6
55818.2
56833.5
64989.2
63580.6
59923
54546.5
46012.1
32497.1
12797
2304.58
110591
35635.3
36247.8
43297.6
50618.5
55820.5
56819.6
65095.1
63731.3
60094.9
54776.7
46528.8
33395.7
14631.6
2183.56
7471.26
26126.8
35787.1
44316
50777.9
55904.9
56883
65173.9
63803.3
60824.3
55205.4
46891.7
34086.4
14982.7
2293.84
2299.82
22561.2
35467.5
46437.5
53850.6
55963.9
56937.9
65266.5
63907.9
60950.1
56009.3
47300.7
33520.5
14308.3
2279.6
2302.19
23977.4
39564.6
50546.6
53984.7
56061.4
57032.6
65365.8
64040.9
61182.7
56211.3
49070
34124.9
10564.2
2278.27
2307.69
28069.8
45309
50768.2
54200.7
56196.1
57130.9
65445.9
64156.9
61307
56789.5
48241.7
35984.9
2309.27
2305.63
13434.7
38852.1
45199.2
50920.9
54349.4
56276.9
57200.5
65483.8
64210.7
61392.6
57008.5
48544.5
36626.3
2310.63
2305.18
14311.1
39503.4
45482.9
51083.8
54460.6
56329.9
57238.6
70506.5
69898.8
68504.8
66760.3
62977.5
60608.1
51974.7
2348.72
53462.2
60138
59909.3
62325.6
63228.1
63828.3
64164
70412.5
69766.3
68289.8
66250.7
61855.2
57796.4
40916.2
2356.97
56924.8
60402.2
59472.5
62020.4
63022.7
63691.6
64049.8
70279.7
69580.3
68127
65445.2
62435.9
50026.6
28809.6
2386.92
3110.32
46943.6
59370.7
61398.1
62714.7
63500
63875.7
70119.8
69363.2
67709.8
65194.2
57889.2
47575.4
24184.1
2340.97
2328.04
44597.7
53080
60875.8
62280.2
63209.4
63644.2
69991
69207.3
67543
62805.1
57118.1
45689.3
23554.9
2286.37
8299.91
35639.2
49099.4
56513
61916.6
62936.9
63403.3
69918.7
69142.3
65811.4
62244.6
55536.5
44149.2
22865.9
2267.63
6102.26
33757.7
46152.3
55691.6
58603.9
62692.9
63211.1
69855.2
69069.3
65536.7
61885.1
54375.6
41820.2
19726.5
2304.22
6506.66
30803.5
44121.6
52596.9
58078.7
62462.8
63013.5
69878.4
69096.4
65517.1
61144.8
53703.5
39256.6
2371.87
3463.72
2773.87
23950.9
41748.2
50764.3
57820.3
62345.6
62921.8
69958.5
69200.9
65670.4
61336.5
54100.2
40922.9
17999.8
2231.1
2276.46
18200.2
41192.3
50640.5
57832.1
62362
62924.1
70092.2
69358.5
65927
62590.9
55127.4
43594.2
22584.1
2264.56
6441.47
28978.4
43483.4
52478.2
58108.4
62501.8
63036.6
70208.8
69474
67944.6
63011.9
56409.7
45146.5
23168.9
2249
19939.6
33794.9
45880.4
55744.3
61618
62668
63148.6
70349.3
69647
68121.7
65783.5
58191.1
48059.3
23958.3
2507.48
6704.95
38178.8
52223.1
60462.6
61915.6
62868.8
63316.2
70494.7
69843.1
68492.9
66006.4
63282.1
49771.9
26639.6
2679.07
25167.2
45858.2
58871
60949.9
62301.9
63097
63488.4
70609.9
70016.9
68674.1
66907.4
63092.6
60629
51423.3
2366.05
53733
59196.9
59022.1
61557
62577.4
63240.8
63608.1
70669.2
70109.8
68828.1
67298.5
63865.9
62267.6
56751.9
2372.24
55758.7
59974.7
59480
61851.4
62745.4
63332.1
63675.9
76651.4
76860.8
77285.6
79282.8
82671.2
92814.5
137776
155000
111228
85101.8
76747.4
74210.7
72184.8
71399.5
71097.4
76542.9
76697.7
77032.5
78743.3
81642.8
92811.7
138111
154572
115922
85681.4
76629.9
74003.4
71995.4
71252.5
70971.3
76393.9
76461.4
76811.7
77439.8
80340.2
79926
105475
117226
112179
79265.1
75368.8
72886.3
71611.2
70995.9
70762.5
76206.4
76219.3
76286.9
76923.3
74018.8
75097.3
79610
47839.3
76493.9
75251.5
71172.5
71954.5
71034.8
70629.9
70466.3
76043.9
76010.1
75939.4
73462.8
72968.6
69281.1
58660
2222.77
47116.3
64403.1
67062.9
68460.3
70438.7
70264
70160.6
75955.3
75822.3
73653.2
72870.7
70020.4
65779.7
55851.6
2041.85
40863.2
60168.8
63197.9
67295.7
67632.8
69862.5
69902
75877.6
75734.1
73440.6
72528.6
68099.5
63113.3
48953.1
2395.53
43414.6
53009.8
59672.8
64146.2
67040.5
69581.7
69671.4
75903.3
75772.6
73454.4
71109.5
67620.2
60051.4
20028.1
9152.55
2308.83
36355.2
55294.9
61716.5
66703.9
69455.3
69575.7
75989.7
75883.9
73617.4
71339.1
68063.6
61269.1
30512.1
2286.68
5296.57
27355.2
54064.3
61463.8
66715.5
69490.2
69591.9
76133.8
76059.1
73867
73248.4
69116
65253.6
56985
2267.96
39154.6
48486.3
58146.2
63878
67083.9
69685.8
69738.3
76260
76285.5
76354.6
73782.6
71138.8
67179.5
56462.7
2398.98
43286.2
59536.1
62484.1
67361.9
70144.1
70001
69911.3
76418.9
76485
76680.5
77474.1
74525
75539.2
66910.9
2398.77
45166.6
67091.8
69642.7
71471
70652.2
70283.6
70139.4
76582.1
76695.9
77146.9
77959.2
81138.6
79387.3
99481.4
121429
97605.7
76112.6
74499.6
72367.6
71135.8
70569.3
70358.9
76708.8
76916.9
77388
79366.6
82844.7
94048.2