/*--------------------------------*- C++ -*----------------------------------*\
| =========                 |                                                 |
| \\      /  F ield         | OpenFOAM: The Open Source CFD Toolbox           |
|  \\    /   O peration     | Version:  v2012                                 |
|   \\  /    A nd           | Website:  www.openfoam.com                      |
|    \\/     M anipulation  |                                                 |
\*---------------------------------------------------------------------------*/
FoamFile
{
    version     2.0;
    format      ascii;
    class       volScalarField;
    location    "0.008";
    object      p_rgh;
}
// * * * * * * * * * * * * * * * * * * * * * * * * * * * * * * * * * * * * * //

dimensions      [1 -1 -2 0 0 0 0];


internalField   nonuniform List<scalar> 
449343
(
99054.1
99230.9
99537.9
99878.8
100109
100063
99474.5
98279.4
96516.5
94381.1
92158.1
90121.8
88469.2
87318
86729.6
99064.7
99242.5
99551.5
99895
100128
100085
99499.7
98308.3
96549.3
94416.5
92193.7
90155.1
88499
87344.6
86754.3
99083.9
99263.7
99576.5
99924.7
100162
100125
99544.9
98360.5
96608.9
94481.4
92259.6
90216.7
88553.7
87393.1
86799.3
99108.3
99290.9
99608.5
99962.6
100206
100174
99602.4
98426.3
96684.4
94564.1
92344.6
90296.3
88623.8
87454.6
86855.9
99133.4
99318.7
99641.4
100002
100250
100224
99659.7
98493.4
96762.5
94649.6
92433
90378.9
88695.6
87516.4
86912.2
99153.6
99341.5
99668.4
100033
100286
100264
99705.6
98547.5
96825.4
94720.2
92505.2
90446.2
88752.9
87564.4
86955
99164.4
99353.6
99683
100050
100304
100284
99728.3
98573
96856.9
94757.2
92541.5
90480.9
88780.5
87585.6
86972.7
99162.3
99351.5
99680.7
100047
100299
100277
99716.6
98557.9
96840.9
94745.6
92531
90469.9
88767.7
87571.5
86957.8
99146.6
99334.3
99660.5
100023
100271
100241
99676.6
98512.7
96790.2
94687.5
92471.5
90412.3
88714.2
87521.6
86909.9
99119.3
99304.2
99625.2
99981.2
100223
100184
99610
98436.8
96702.9
94591.1
92374.5
90317.2
88627.4
87442.5
86835.2
99084.7
99266.1
99580.9
99929.3
100163
100115
99530.8
98345
96598.4
94475.9
92255.5
90202.3
88522.4
87346.9
86744.9
99048.2
99226.1
99534.5
99875.1
100102
100045
99451.8
98254
96493.9
94361.4
92135.8
90086.4
88415.9
87249.4
86652.5
99015.2
99190.1
99493.1
99826.9
100047
99984.7
99381.9
98175
96404
94262.4
92032.2
89986
88323
87163.6
86571
98990.5
99163.2
99462.3
99791.1
100006
99939
99330.4
98116.5
96337.7
94189.6
91956.7
89912.8
88254.9
87100.5
86510.6
98977.3
99148.9
99445.8
99772.1
99984.8
99914.5
99302.8
98085.2
96302.4
94151.2
91917.2
89874.6
88219.2
87067.2
86478.7
98847.8
99072.8
99480.5
99977.7
100401
100575
100130
98886.9
96884.9
94418.3
91898.8
89660.9
87893.5
86684.4
86072.5
98859.1
99085.5
99495.9
99996.6
100424
100601
100160
98921.7
96925.3
94462.6
91942.8
89700.8
87928
86714.5
86100.3
98879.8
99108.9
99524.4
100032
100466
100648
100214
98985.8
97000.4
94546.3
92026.9
89776.3
87992.3
86769.9
86150.9
98906.4
99139.2
99561.6
100078
100519
100706
100279
99062.5
97095
94655.1
92138.8
89876.5
88076.2
86840.9
86215.1
98934
99170.9
99601.1
100126
100576
100764
100350
99149.4
97189.6
94771.4
92261.1
89984.5
88164.2
86913.4
86279.7
98956.9
99197.5
99634.6
100168
100624
100817
100408
99221.4
97280.7
94867.3
92364.6
90077
88236.8
86971
86329.6
98969.5
99212.6
99654.4
100193
100648
100850
100442
99260
97329.8
94925.4
92429.7
90129.6
88274
86998.1
86351.5
98968.2
99211.5
99653.3
100192
100646
100844
100430
99191.8
97306.4
94911.2
92421.8
90120.1
88261.4
86984.1
86336.4
98952.1
99193.4
99631.6
100164
100612
100802
100382
99186.5
97247.7
94842.1
92347.8
90050.9
88200.1
86928.3
86283.9
98923.2
99160.6
99591.1
100114
100556
100730
100299
99091.3
97134.2
94716.2
92213.2
89930.7
88098.3
86839
86201.4
98886.5
99119.1
99540.4
100052
100484
100647
100207
98980.8
97000.2
94572.5
92060.4
89788.7
87975.9
86732
86102.2
98847.9
99075.7
99488.1
99989
100411
100571
100118
98873.9
96884.1
94430.9
91909.7
89649.2
87854
86624
86001.4
98813.2
99037.1
99442.1
99933.8
100348
100504
100043
98789
96781.2
94311.5
91783.9
89531.4
87749.3
86529.9
85912.9
98787.4
99008.4
99408.3
99893.2
100301
100453
99985.8
98722.5
96703.8
94224.3
91694.1
89447.4
87673.7
86461.2
85847.9
98773.6
98993.2
99390.4
99871.9
100276
100425
99955.3
98687.4
96663.3
94179.4
91648.3
89404.1
87634.4
86425.1
85813.7
98331.4
98666.4
99305.3
100171
101085
101814
101806
100439
97794.2
94457
91209.1
88512.9
86495.2
85162.4
84501.3
98344.2
98681.3
99324.3
100196
101116
101849
101846
100488
97852.9
94522.5
91272.7
88567.8
86540.4
85200.5
84535.7
98368
98709.2
99360.5
100244
101176
101917
101918
100582
97963.8
94654.1
91401
88675
86626.3
85271.4
84599.1
98398.9
98746
99409.3
100309
101258
101999
101998
100701
98097.1
94831
91585.3
88825.4
86741.8
85364
84680.5
98431.7
98785.9
99463.8
100383
101345
102077
102058
100786
98231.6
95043.4
91795.1
88994.6
86867.9
85461
84763.7
98459.6
98821.1
99513.3
100448
101427
102149
102139
100907
98397.1
95211.7
92004.1
89150.6
86975.9
85540.6
84829.6
98476.1
98842.1
99542.5
100495
101467
102208
102195
100977
98492.2
95305.2
92167.6
89245.8
87038.4
85580.9
84860.1
98476.8
98844
99545.5
100500
101475
102224
102228
100833
98472.6
95292
92160.4
89238
87026.9
85567.3
84844.8
98459.7
98823.5
99519.3
100464
101425
102149
102115
100870
98367.8
95188.9
92056.4
89141.6
86945.9
85497.5
84781.6
98428.3
98785.8
99469.6
100390
101348
102044
101996
100725
98183.6
95005
91794.2
88959.8
86805.5
85385.1
84682
98387.6
98736.8
99403.8
100305
101241
101941
101881
100566
97975
94778.9
91534.4
88750.8
86643.7
85252.1
84562.9
98345
98686.4
99338
100219
101142
101851
101809
100473
97834.6
94553.9
91306.6
88556.4
86486.4
85120.3
84443.3
98307.1
98642.4
99281.8
100147
101054
101767
101732
100359
97711.5
94382.4
91121.7
88397.5
86355.6
85007.7
84339.7
98278.9
98610.1
99241.4
100095
100991
101699
101663
100273
97610.3
94259.3
90997.8
88289.2
86263.3
84926.6
84264.2
98264
98593.2
99220.5
100069
100959
101664
101625
100228
97557.2
94199
90937.6
88235
86216
84884.5
84224.8
97372.4
97867.5
98852.8
100305
102096
103905
105082
103486
99410.4
94241.8
89755.5
86416.3
84095.8
82631.8
81925.8
97386.6
97884.7
98876.1
100338
102139
103956
105133
103556
99494.3
94339.2
89847.8
86491.8
84155.7
82680.9
81969.5
97413.4
97917.5
98922
100405
102230
104061
105241
103705
99677.7
94563.8
90046.5
86644.4
84271.8
82773.8
82050.8
97448.6
97961.6
98986.7
100503
102358
104211
105240
103920
99879.6
94940.4
90370.1
86870.4
84433
82897.3
82156.4
97486.6
98011.3
99062.3
100616
102519
104331
104530
103728
100720
95396.6
90767.1
87147.2
84615.6
83029.4
82266.1
97520.2
98057.2
99140.9
100753
102677
103571
104586
103901
101039
96760.8
91253.8
87424.2
84783.3
83139.8
82354.2
97540.7
98087.4
99189.6
100833
102038
103679
104678
104025
101213
96995.6
92572.1
87579.6
84878
83197.7
82396.3
97543.3
98094.1
99201.9
100847
102043
103725
104735
103959
101242
97039.1
92589.1
87569.7
84874.7
83184.5
82377.1
97526.6
98070.6
99166.9
100799
102004
103655
104627
103924
101110
96890.5
92455.9
87424.5
84751.7
83091.3
82299.8
97493.5
98025.8
99098.9
100693
102586
103506
104470
103740
100854
96611.5
90903.1
87146
84556.1
82946
82176.4
97449.2
97967.8
99005.6
100537
102404
104158
104384
103540
100570
94997.3
90387.1
86816.9
84331.1
82777.2
82030.1
97403.2
97909.8
98921.1
100414
102235
104041
105006
103625
99521.7
94566.4
90004.3
86531.9
84125.3
82613.3
81885
97362.6
97860.2
98851.3
100313
102108
103901
105038
103448
99376.7
94234.9
89710.5
86317.2
83960.1
82476
81760.9
97332.6
97824.3
98802.9
100245
102019
103804
104942
103323
99224.5
94042.2
89536.2
86177.6
83846.6
82378.6
81671.5
97316.8
97805.7
98778.6
100212
101978
103756
104898
103265
99156.1
93960.5
89456.6
86109.9
83789.5
82328.6
81625.2
95768.8
96438.2
97821.3
100008
103068
106942
110981
108749
101853
93032.1
86822.8
82945.2
80473.4
78996.6
78311.6
95783.1
96456
97846.8
100046
103124
107013
111048
108814
101975
93177.4
86948.3
83041.5
80548.4
79057.6
78365.4
95810.3
96490.8
97898.3
100130
103258
107180
111212
108978
102265
93500.1
87222.4
83238.9
80696.1
79174.3
78466.2
95846
96538
97974.6
100280
103535
107505
109054
109314
104031
94420.1
87784.7
83564.5
80907.7
79332
78598.6
95884.3
96590.6
98069.9
100449
103803
106115
109313
109624
104628
96990.6
88458
83961.7
81156.1
79501.8
78737
95919.2
96647.5
98187.2
100748
103017
106465
109629
109929
105163
97799.7
90948.6
84413.5
81379.9
79650.9
78849.1
95937.6
96670.8
98222.9
100172
103126
106690
108790
109418
105686
99055.7
91539.7
86403.2
81471.2
79709.7
78898.4
95944.9
96685.1
98295.6
100179
103184
106750
108874
109495
105855
99245.4
91725.2
86505
81565.4
79680.9
78877.5
95927.8
96658.2
98203.4
100142
103131
106667
108753
109324
105586
98994
91446.6
86314.6
81289.9
79570.3
78778.4
95900.5
96623.5
98151
100687
102958
106425
108558
108998
105100
97504.7
90737.5
83992.2
81064.8
79404
78632.5
95857.8
96557.6
98021.9
100373
103677
106069
109162
109296
104264
96812.1
87866.9
83490.9
80785.5
79193.4
78457.6
95814.6
96500
97921.6
100201
103413
107319
108905
109115
103907
93891.3
87286.3
83128
80532.3
78999.1
78287
95775.5
96449.3
97842.6
100051
103143
107015
110996
108829
101916
93102.8
86814.8
82850.3
80335.5
78837.4
78142.3
95746.5
96412.9
97790.4
99968.8
103016
106865
110860
108645
101687
92849.2
86597.3
82688.1
80204.2
78724.5
78039.2
95731.3
96394.4
97764.8
99931.3
102964
106801
110806
108558
101592
92734.7
86498.3
82610
80139
78667.2
77986
93263.9
94058.3
95761.9
98647.1
103175
110290
116235
122187
109246
88559.8
81199.5
77533.9
75345.5
74152.5
73634.1
93276
94073.6
95784.5
98684.7
103239
110370
116295
122257
109341
88724.2
81342.3
77641.8
75432
74224
73697.2
93298.4
94102.8
95828.1
98750.9
103362
110556
116437
122429
109557
89011.4
81603.1
77843.6
75600.8
74360.4
73815.8
93327.1
94144.7
95900.8
98907.5
103873
108608
116809
122838
109991
93865.8
82280.1
78159.3
75848.5
74549.7
73973.1
93353.9
94177.9
95961.1
99091.2
102786
109065
117442
120833
111887
95538.9
86177.9
78658.9
76106
74743.2
74136.7
93381.7
94210.3
96093.2
98782.8
103070
108368
115949
120425
113124
98878.8
87300.1
81568.2
76388.4
74898.7
74267.5
93389.2
94210.4
96133.8
98894.5
103326
108531
115296
120991
114540
100917
89617.8
82050.6
76494.4
74950
74319.6
93388.1
94194.8
96177.9
98986.9
102704
108090
115440
121235
114992
101311
89872.9
82133.7
78520
74835.7
74271.5
93386.3
94206.1
96122.4
98933.4
102665
108509
115299
120886
114359
100685
89417.2
81781.6
76210.1
74764.2
74170.3
93374.9
94198.2
96069.9
98763.7
103170
108358
114942
120240
113216
99511.2
88555.6
81252.9
75947.1
74588.5
74008.2
93344.4
94162.9
95932.1
99035.6
102763
109091
115419
120574
111731
97254.5
85836.7
77973.9
75628.2
74372.8
73812.6
93316.9
94128.5
95871.1
98851.7
103775
108555
116738
122628
109683
93670.8
81607.7
77605.3
75399.7
74167.3
73622.7
93286.8
94085
95797.2
98697.6
103273
110412
116354
122268
109353
88561.9
81126.5
77393.7
75193.1
73987.5
73461.5
93264.1
94055.8
95754.4
98634.5
103160
110250
116175
122102
109158
88388.3
80961.1
77255.6
75058.2
73865.1
73347.5
93251.8
94040.5
95732.3
98598.5
103100
110179
116106
122021
109048
88273.4
80862.9
77179.1
74989.9
73802.6
73288.9
89626.8
90399.7
92106.9
95163.9
100259
107265
123830
154208
113787
81112.3
70882.3
69396.6
68492.8
68126.7
67993.6
89634.7
90409.1
92119.8
95183.2
100295
107304
123863
154246
113834
81212.5
71007.6
69499.4
68586.7
68206.5
68064.7
89646.1
90419.9
92131.1
95178.9
100279
107385
123907
154342
114012
81500.3
71179
69689.1
68764.3
68354.6
68197.6
89658
90433.1
92147.1
95081.1
99852.6
107947
124135
154464
114216
82243.6
75297.5
69861.7
69020.5
68556.8
68374.5
89654.2
90413
92056.9
95308.4
100037
107287
121567
154867
116234
87469.6
76197.3
72919
69219.3
68764.4
68556.3
89644
90339.6
92653.9
95471.7
99943
107487
120547
150683
123253
92081.3
80072.9
73654.9
71569.4
68896
68700.9
89646.7
90339.4
92714.7
95558.1
100088
107257
120805
151689
127849
95729.6
82920
76057.1
71839.9
68992.6
68778.2
89630
90325.4
92802.4
95620.9
100141
107320
120916
152157
130327
97303.7
83578.3
76262.2
71926
68940.9
68692.9
89653.6
90346.3
92744.4
95619.4
100137
107271
120770
151513
127191
95149.3
82615
75815.8
71608.6
68788.6
68605.8
89653.5
90342.2
92697.2
95482.8
100035
107130
120480
150490
122777
91530.9
80807.7
74930.8
71182.1
68546.4
68412
89670.1
90428.3
92060.9
95333.1
100070
107351
120228
149839
120715
89125.8
78012.3
72300.3
68668.7
68350.3
68200.9
89676.2
90448.1
92154
95067.7
99763.6
107862
121311
154308
114393
86077.8
74680.3
69219.6
68517
68140.1
67998.7
89665.4
90434.8
92136.3
95168.8
100242
107385
123851
154187
113934
81305.8
70676.3
69199.8
68327
67960.4
67825.5
89655.6
90425.5
92126.4
95174
100263
107282
123773
154131
113778
81054.2
70621.1
69100.3
68199.6
67835.4
67703.6
89648
90416.2
92114.1
95156.3
100229
107210
123738
154080
113684
80916.3
70559.2
69041.7
68131.4
67769.2
67640.4
84781.4
85281.9
86375
88317.7
91384.5
98229.8
105535
102275
23574.2
51415.9
56029.5
58664
60300.4
61320
61777.5
84786.6
85287.1
86381.1
88321.8
91398
98234.3
105546
102219
23568
51498
56126.3
58779.8
60410.2
61409.4
61856.7
84789.6
85283.1
86376.1
88329
91382.8
98231.1
105555
102229
23521.5
51811.8
56409.6
59071.1
60629.1
61580.5
62007.4
84787.3
85259.9
86343.5
88168.1
92854.8
97981
105464
102248
23839.9
52613.6
58674.9
59678
60981.6
61820.8
62215.2
84762.6
85207.3
86225.8
89492.8
92792.2
98636.4
106539
102295
25294.5
57847.5
61735.6
62149.1
61448.2
62112.2
62439
84703.8
85141.8
87541.6
89525.3
93452.8
99120.2
106627
102242
31185.1
63788.6
65467.2
63114.9
63483.8
62403.6
62626.6
84720.8
85149.9
87615.8
89557.6
93848.9
99262.9
106771
102202
77010.7
73047.2
68472.2
65433.8
63780
62576.6
62747.5
84721.5
85142.2
87625
90257.4
93936.2
99353.8
106859
102088
88406.7
76512.9
69575.5
66715.3
63815.2
62572.6
62709.4
84739
85168.8
87622.7
90245.9
93933.5
99341.8
106835
102198
69006.5
71316.2
67915.4
66084.8
63500.6
62376.8
62579.6
84743.4
85178.7
87618.1
89547.3
93837.8
99231.6
106702
102262
30259.5
62459.2
64861.2
63972
63031.4
62057.2
62336.8
84805.1
85253.5
86271.5
89540
93443.7
99079.2
106540
102185
26520.9
57907.3
62337.8
61464.2
60885.5
61693.6
62079.7
84840.1
85313.1
86401.7
88215.9
92862.3
97771
105308
102236
25476.7
54218.4
57974.2
59049.8
60465.9
61401
61838.2
84847.3
85338.8
86424.9
88372.2
91414
98080.4
105452
102144
24050.9
51636.8
55914.7
58585.7
60197.2
61189.9
61638.4
84847.7
85345.8
86433.6
88365.7
91429.1
98233
105505
102136
23760.1
51423.3
55775.7
58403.8
60036
61046.4
61502.2
84842.9
85340.2
86428.3
88362.2
91415.4
98227.4
105498
102134
23626.7
51329
55759.5
58336.1
59955
60973
61432.7
78975.9
78968.7
78933.7
78879.7
79096.2
83494.5
87291.6
100242
4894.17
30421.5
41944.5
48224
52311.8
54692.1
55756.3
78984.3
78976.9
78946.7
78897.7
79136.3
83502.6
87298.8
100060
3414.93
30521.8
42051.3
48376.4
52438.2
54790.4
55842.6
78996.8
78989.1
78968.4
78974.6
79210.3
83505.2
87309.4
100079
2291.97
30848.9
42437.7
48727.9
52700.1
54992.4
56012.7
79010.6
78984.4
78981.6
79153.3
82155.6
83614.4
87270.4
100112
2390.38
31711.4
43611.1
49539.6
53158
55305.7
56262.6
79015.8
78977.8
79070
81349.4
82415.3
85662.5
88599.2
100352
2306.08
33384.9
45745.5
51429.2
53853.3
55716.2
56557.9
79006.5
79054.4
80858.2
81466.5
83907
86761.3
88834.7
100365
14731.5
39395.4
48770.9
52582.2
55341.9
56164.7
56831
79050.4
79099.8
80923.2
81586.6
84771.7
86997.9
89155.2
100685
46325.2
47331.4
51610.7
54154.7
55733
56384.2
56986.1
79066.6
79116.6
80942.1
82730
84891.7
87207.2
89445.5
100931
60204.6
49212.9
52542.1
54875.1
55850.2
56397.5
56974.8
79081.7
79137.2
80950
82729.2
84916.1
87242.6
89496.2
101032
45732.3
45193.7
51045.2
54308.3
55550.2
56177.8
56826.5
79069.2
79117.8
80936.5
81623.6
84820.1
87079.3
89258.1
100809
6953.02
37790.5
48246.6
52758.8
54990.6
55812.5
56553.4
79098.2
79069.3
79176.2
81488.9
83992.9
86858.2
88925.5
100456
2418.49
33282.1
45835.3
50872.2
53279.6
55314
56218.2
79106
79081.4
79084.2
79267.7
82404.3
83936.4
87719.5
100415
4588.16
31421.9
43317.3
48930.7
52682.5
54915.7
55909.8
79098.9
79090.5
79067.9
79076.2
79317.2
83624.2
87369.4
100136
2961.21
30705.1
42009.5
48304.2
52310.7
54631.7
55669
79091.2
79083.9
79052.1
79001.4
79237.4
83571.1
87349.5
100092
2500.55
30478.5
41755.5
48050.4
52100.7
54456.2
55513
79084.9
79076.9
79039.6
78982.3
79195
83565.6
87335.4
100072
2616.92
30410.2
41727.9
47941.4
52001.2
54372.8
55435.8
72878.3
72304.1
71124.7
69321
69278.3
68876
71840.4
2185.03
22195.3
33829.5
41194.5
46349.6
49468.6
50923.8
72894.3
72320.7
71149.4
69357.6
69304.1
68896.3
71854.2
2202.47
22315.4
33958.6
41350.7
46467.2
49562.4
51006.5
72928.4
72363.3
71202.4
69434.4
69423.6
68984.3
71889.3
2225.22
22348.9
34302.7
41637.3
46702.9
49755.7
51169.6
72984.8
72424.4
71260.1
69670.4
69972.3
69101.4
71906.9
2236.58
22858.8
34389.3
42282.3
47098
50063.4
51413.7
73065.5
72513.1
71543.9
72022.7
70801.2
71456.7
72896.9
2244.89
21984.6
35039.3
43027.6
47627.9
50453.4
51710
73147.4
72752
73351.6
72460.2
72533.6
72854.5
73379
2287.51
24135.9
36402.9
43765.6
48408.3
50787
51995.6
73224.7
72860.4
73410.3
72748
73688.3
73484.3
74231.1
2154.87
25951.9
37858.9
44551
48754.5
50963.2
52134.3
73262.3
72911.1
73480.8
73848.1
74056.3
74088.6
75262.5
4833.17
26081.1
38337.1
44966.6
48779.2
50978.4
52126.8
73275.4
72916.5
73490.6
73882.1
74117.6
74208.8
75499.7
2258.29
25623.4
37667.2
44615.6
48574.1
50796.9
51998
73233.9
72845.7
73453
72805.4
73835.1
73721.2
74610.3
2340
23785.8
36231.4
43686.6
48202.3
50500.6
51756.3
73187.3
72649.6
71709.5
72291.2
72634.5
73072.2
73654.4
2313.33
21835.1
34807.1
42684.4
47199.8
50118.3
51417.7
73125.4
72567.8
71414.7
69845
70415.7
69537.9
72125.1
2340.05
21484.9
34136.6
41845.5
46721.6
49734.4
51108.6
73079.1
72516.2
71355.9
69597.6
69707.8
69195.7
72085.2
2360.99
22268
34004.4
41313.2
46381.8
49446.3
50868.6
73052
72480.5
71310.9
69520.7
69530
69085
72013.3
2377.02
22290.5
33745
41088.7
46181.5
49271
50714.8
73038.8
72465
71286.9
69481.3
69429.4
69022.9
71971.2
2383.9
22266.2
33670
40965.8
46084
49187.9
50638.5
67365.7
66240
63903.6
59954.7
58177.1
51924.6
48759
2292.21
2187.82
19330.1
30233.5
37822.2
43146.2
46453.9
48047
67385.2
66260.8
63925.8
59980.3
58194.7
51935.7
48771.7
2437.62
2202.97
19564.8
30332.7
37945.2
43230.5
46524.6
48109.5
67428.3
66310.8
63972.1
59999.7
58262
51970.5
48804
2580.82
2220.28
17157.9
30666.5
38125.5
43391.6
46662.3
48227.8
67499.8
66405.1
64020.3
60145.5
58409.3
52051.8
48927
2648.55
2253.62
17841.5
29315.2
38446.1
43639.1
46877.9
48402.1
67626.2
66534.5
64219.9
63240.8
58693.7
55112.4
51080.2
3145.06
2266.71
16645.3
28991.8
37992.4
43932.1
47142.3
48607.7
67757.8
66753.9
66325.7
63514.9
60917.3
56923.3
51858.1
2959.51
2324.93
17347
29271.2
38361
43834.7
47323.8
48809.3
67852.5
66880.8
66461.9
63754.8
62218.5
57943.2
53516.5
2144.39
2272.74
17801.3
29976
38355.5
44062.2
47410.6
48894.8
67903.5
66957.1
66555.5
65171.3
62750.6
59321.8
57518.6
6365.72
2317.49
18828.5
30385.6
38409.8
44097.8
47416.6
48886.7
67919.5
66957.5
66576.6
65230.8
62860.1
59649.5
58996.4
9826.71
2156.82
18527.4
30140.8
38245.7
43980
47306.1
48796.8
67874.1
66893.1
66536
63861.6
62474
58443.9
54612.6
21298.4
2320.1
17584.8
29396.7
37947.6
43736.2
47134.4
48632
67786.9
66705.9
64431.2
63576.9
61106.2
57272.1
52314.3
2409.68
2288.97
16691.9
28638
37794.4
43662.9
46901.7
48383
67688.2
66595
64224.3
60380
58705.7
52471.3
49465.4
2933.08
2302.11
16933.5
29213.7
38184.7
43376.6
46625.8
48157.2
67629.7
66520
64194.6
60230.9
58507.2
52223.9
49110.2
2286.94
2362.04
17372.3
30506.9
37906.2
43147.8
46412.3
47977
67597.3
66476.6
64149.4
60208.7
58454.4
52159.4
48998.5
2692.86
2379.91
19454.9
30199.8
37748.8
42999.8
46279.7
47859.5
67582.2
66459.5
64127.9
60180.9
58401.9
52137.8
48964.1
2317.95
2389.54
19333.4
30139.8
37648.9
42926.6
46213.9
47799.4
63260.2
61630.6
58215.8
52348.4
42582.4
34993
14286.9
2259.91
2195.52
19304.5
29782.2
37213.3
42506.7
45799.9
47393.8
63271.9
61642.7
58222.4
52351.8
42606.9
34973.5
14249.4
2250.59
2210.97
19324
29762.1
37274.3
42545.9
45836.9
47426
63300.8
61675.6
58247.8
52336.1
42655.4
34741.4
14221
2245.25
2228.73
16647.6
29829.1
37372.6
42630.4
45903.4
47483.4
63351.5
61754.4
58268.9
52446.6
47546.3
34702.9
14196.7
2255.96
2260.44
16416.9
27408.8
37486
42741.6
46007.2
47567.7
63452.7
61872.6
58405.6
55608.4
47859.5
38780.9
20561.8
2288.51
2308.9
14616.3
26483.8
35907.2
42857.6
46151.4
47664.8
63568.5
61975.4
60559.3
55835.9
50475.3
41109.8
21861.5
2333.37
2306.03
14948.8
26263
36106.3
41852.3
46224.3
47772.3
63647.1
62059.2
60759.9
56024
51948.4
42112.4
23067.9
2320.18
2280.92
15569.5
26782.7
35543.4
41987.7
46252.6
47802.9
63698.7
62133.6
60874.2
57720.7
52438.6
43742.1
28851.4
2307.09
2236.18
17916.4
27256.7
35348.7
42028.4
46250.4
47793
63728.6
62150.3
60915.8
57789.1
52582.2
44258.7
30662.7
7574.08
2297.49
16351
27084.1
35280.6
41973
46188.5
47736.5
63717.3
62139.7
60892.1
56160
52257.9
42815.2
24549.6
2280.53
2302.37
15327.6
26540.4
35381.2
41826.4
46102.7
47647.2
63652.3
62085.9
58654.7
56093.3
50722.8
41517.2
22254.6
2309.96
2305.22
14728.1
26043.4
35834.5
42692.6
45981.7
47497.6
63583.2
61996.8
58530.3
52742.7
48013.5
35292.1
16116.2
2282.37
2327.32
15291.3
27419.3
37327
42557.7
45815.6
47373.7
63555.5
61941
58533.2
52636.6
42957.8
35054.8
14459.6
2253.7
2364.91
16713.4
29756.7
37221.3
42443.3
45701
47274.9
63540.9
61919.1
58512.5
52656.4
42909
35172.9
14467.5
2246.93
2380.85
19267.1
29705.2
37122.3
42356.4
45629.1
47210.6
63535.1
61912.8
58510.5
52655.8
42890.4
35268.1
14526.8
2248.26
2390.99
19261
29736.5
37071.6
42320.5
45592.2
47176.9
61294
59399.7
55382.6
48929.7
37677.3
27961.9
2178.66
2235.54
2183.85
20319.4
31704.5
39069.2
44243.1
47386.7
48894.8
61289.8
59396.4
55375.6
48894
37787.1
27880.9
2196.52
2236.82
2199.36
20179.5
31581.5
39062.6
44228.7
47386
48895
61290.1
59392.4
55372.5
48647.4
38358.7
27650.6
2220.7
2262.31
2227.88
16524.3
31533.8
39116.5
44235.7
47386.6
48894.7
61301.9
59443.6
55416.8
48788.2
41830.2
27563.1
3284.19
2280.71
2260.51
16872.3
28196.9
39111.8
44237.4
47393
48899.8
61358.1
59538.2
55560.9
51175.2
42006.4
30636.6
13394.9
2287.26
2283.96
14624.7
26808.9
36646.3
44249.4
47437.2
48908.2
61437.6
59611.2
57092.2
51327.8
44046.9
32245
13781.8
2294.71
2289.11
14905.3
26286.2
36714.8
42461.7
47436.5
48935.8
61486.8
59661.1
57215.1
51470.3
45177.1
32789.1
14183.4
2271.5
2288.29
15446.9
26720.2
35721.2
42510.5
47419.2
48918.9
61535.3
59719.7
57320.8
52833.9
45456.8
33557.4
15486.5
5171.7
2288.46
16032.5
27179.1
35343.4
42545.1
47404.8
48902.5
61580.4
59762.9
57382.7
52897.8
45570.3
33897.8
16654.2
2287.5
2321.23
16153.2
27226.9
35353.5
42532.7
47375.8
48870.2
61612.7
59799.7
57379.3
51654.7
45438.4
33284.2
15185.8
2287.89
2314.73
15611.7
26798.1
35727.7
42465.2
47347.6
48840.3
61594.9
59791.1
55855.5
51634.1
44303.9
32577.3
13948.7
2326.54
2296.18
14878.4
26311.6
36643
44140.6
47306.4
48773.9
61580.3
59736.3
55733.5
49145.4
42238.5
28377.9
12596.2
2286.24
2286.27
15589.5
28296.7
39003.3
44093.2
47234.4
48735.6
61598
59715.4
55726.8
49026
38749.2
27897.7
2418.01
2268.5
2368.48
16900.4
31501.7
38986.3
44075.2
47209.9
48711.1
61615.4
59735.3
55739.9
49291.8
38164.3
28381.1
2424.72
2237.11
2401.43
20344
31549.2
38922
44057.5
47197.9
48699.5
61627.4
59747.1
55756.7
49337.3
38083.4
28476.6
2444.04
2234.22
2417.36
20400.9
31650.5
38925.2
44067.7
47194.6
48694.8
61965.1
60197
56400.1
50389.5
39735.9
26133.8
2223.3
2287.63
2180.34
26328.6
36621.3
43640.5
48352.9
51079.3
52377.5
61940.5
60168.4
56357.8
50294.1
39679.2
25910.3
2233.54
2286.57
2196.71
26072.7
36502.4
43569.6
48281.7
51040.8
52345.9
61904.6
60114.8
56298.4
49944.3
40588.4
26909.8
5690.73
2269.75
2223.49
19947.8
36469.1
43599.3
48206.7
50983.6
52292.6
61873.3
60091.6
56256.1
49887.4
41830.7
27151.5
5564.49
2276.01
2254.69
19953.3
32037.2
43466.4
48097.4
50900.2
52225.8
61877.8
60116
56273.7
50934.5
41601.1
29261.2
12122.3
2286.2
2278.7
16733.4
29998.8
40210
48014.4
50849.6
52154.8
61910.1
60141.3
56851.9
50853.9
42702.4
30264.3
12524.5
2295.95
2283.67
17001.1
29110.6
40091.2
45567.2
50784.9
52107.3
61926.1
60148.1
56877.7
50823.5
43259.3
30453.5
13328.3
7172.77
2284.53
18137.2
29562.2
38644.1
45494.9
50711.8
52041.5
61971.4
60193.7
56934.4
51637.6
43249.2
30483
13832
9584.99
4040.1
21275.9
30450.2
38109.9
45485.2
50675
52011.5
62034
60266.8
57022.1
51708.6
43316.6
30368.9
11903.5
2332.22
2295.52
22884.9
30906.8
38206.5
45505.8
50674.6
51998.9
62115.2
60367.1
57101.8
51110.7
43462.6
30479.5
12990.3
2329.08
2315.14
19426.7
30150
38797.8
45540.6
50708.3
52024
62147.5
60412.5
56627.4
51313.8
43026.6
30534.1
12915.3
2273.25
2306.42
17296.8
29378.9
40172.4
47915.9
50731.2
52032.3
62197.6
60439.3
56645.4
50344.9
42172.9
28093.8
11416.1
2288.6
2320.93
18027.7
32082.1
43356.6
47956.4
50748.7
52070.8
62262.1
60497.6
56732.6
50445.8
41138.5
27715
7014.24
2267.48
2375.67
20074.9
36376.1
43435.4
48043.7
50809.5
52115.7
62318.4
60570.9
56811.5
50820.3
40308.1
26650
2361.03
2298.09
2412.29
26073.9
36306.3
43388.1
48101.1
50852.4
52154
62352.1
60609.2
56862.6
50925.7
40342.1
26806.8
2370.86
2298.97
2431.2
26291.4
36474.1
43454.1
48164.2
50884.6
52179.4
65193.4
63882.6
60983.8
56471.7
47871
35606.6
2220.58
2289.26
15046
39963.1
45914.7
51458.6
54804.9
56675.1
57581.1
65145.1
63816.8
60878.2
56222.3
47480.5
34632.8
2232.21
2297.16
15669.2
39975.4
45610.7
51252.5
54663.1
56595
57516.2
65067.9
63706.7
60774.2
55668.4
48405
33584.2
8749.67
2264.04
2217.74
29147.6
45619.4
51088.5
54483.4
56482.2
57410.8
64978.7
63583.3
60556.1
55510.4
47084
32847.1
10813.5
2272.7
2242.6
27631.6
39858.5
50788.5
54224.7
56303
57271.5
64921.8
63515.8
60446.4
54971.5
46429.4
33484.9
14561.5
2274.32
2261.83
22288.6
36931.5
46760
54046.5
56153.8
57123.9
64902.1
63491.4
59919.9
54544.1
46369.2
33663.7
15002.1
2294.85
2269.35
22070.5
35213.6
46311.6
50993.3
56033.2
57008.3
64883.9
63457.2
59795
54306.5
46173.4
33132.7
16344.2
2281.84
6400.28
22760.7
35005.7
44181.4
50716.9
55889.3
56885.9
64926.4
63496.9
59811.9
54435.6
45850.1
32319.3
13906.7
2281.34
2273.47
25720.7
35446.6
43210.8
50595.7
55818.2
56833.5
65008.9
63600.2
59937.7
54558.7
46023.1
32508.1
12808
2305.2
110602
35646.4
36258.8
43308.7
50633.3
55840.1
56839.2
65134.3
63770.6
60129.3
54811.1
46559.5
33426.4
14662.3
2184.62
7501.91
26157.4
35817.8
44347.8
50812.3
55944.1
56922.2
65232.8
63862.1
60883.1
55259.3
46943.2
34136.7
15032.9
2316.14
2322.09
22611.5
35517.8
46491.4
53909.4
56022.7
56996.8
65345
63986.3
61028.6
56087.7
47374.2
33594.1
14379.4
2280.02
2350.34
24048.6
39638.2
50625
54063.2
56139.8
57111.1
65463.9
64139
61280.8
56309.4
49168.1
34218.1
10657.4
2278.63
2389.78
28163
45407.1
50866.3
54298.8
56294.2
57229
65563.6
64274.6
61424.7
56907.3
48359.5
36102.6
2385.8
2318.41
13552.4
38969.8
45316.9
51038.6
54467.2
56394.6
57318.2
65621.1
64348
61529.9
57145.8
48681.8
36763.6
2400.65
2320.5
14448.4
39640.7
45620.3
51221.2
54597.9
56467.3
57375.9
70369.2
69761.5
68367.5
66623
62840.2
60470.8
51837.4
2258.58
53324.9
60000.6
59771.9
62188.2
63090.8
63690.9
64026.7
70294.8
69648.5
68172.1
66133
61737.5
57678.6
40798.5
2279.95
56807.1
60284.5
59354.8
61902.6
62905
63573.9
63932.1
70181.6
69482.2
68028.9
65347.1
62337.8
49923.6
28706.6
2333.69
3008.52
46840.6
59272.6
61300
62616.6
63401.9
63777.6
70041.3
69284.7
67631.3
65115.8
57805.9
47492
24100.8
2339.04
2249.55
44514.3
52996.6
60797.3
62201.7
63130.9
63565.7
69932.1
69148.4
67484.2
62741.3
57054.3
45623.1
23487.5
2279.22
8232.47
35571.8
49033.2
56449.2
61857.8
62878
63344.4
69879.4
69103.1
65767.3
62200.5
55489.9
44101.4
22818.1
2253.98
6054.46
33709.9
46104.5
55647.5
58559.7
62653.7
63171.8
69835.6
69049.7
65512.1
61860.5
54347.4
41792
19698.3
2298.25
6478.45
30775.3
44093.4
52570
58054.2
62443.2
62993.9
69878.4
69096.4
65512.2
61137.4
53694.9
39248
2368.81
3455.13
2770.38
23942.3
41739.6
50755.7
57815.4
62345.6
62921.8
69978.2
69220.6
65685.2
61348.8
54111.2
40934
18010.8
2231.95
2277.94
18211.3
41203.4
50651.5
57846.8
62381.7
62943.7
70131.4
69397.7
65961.3
62625.2
55158.1
43624.9
22614.8
2267.89
6472.13
29009
43514
52510.1
58142.8
62541.1
63075.8
70267.6
69532.8
68003.5
63065.8
56461.2
45196.8
23219.1
2252.18
19989.9
33845.2
45930.6
55798.2
61676.9
62726.9
63207.4
70427.8
69725.5
68200.1
65862
58264.7
48132.9
24029.5
2577.29
6774.84
38249.9
52296.6
60541.1
61994
62947.3
63394.7
70592.8
69941.2
68591
66104.5
63380.2
49865.1
26732.8
2763.82
25260.4
45951.4
58969.1
61048
62400
63195.1
63586.5
70727.6
70134.6
68791.9
67025.1
63210.3
60746.7
51541
2450.69
53850.7
59314.6
59139.8
61674.8
62695.1
63358.5
63725.8
70806.5
70247.1
68965.4
67435.8
64003.2
62404.9
56889.3
2474.56
55896
60112
59617.4
61988.7
62882.7
63469.5
63813.2
76514.1
76723.5
77148.3
79145.5
82533.8
92677.1
137639
154863
111091
84964.5
76610.1
74073.4
72047.4
71262.2
70960
76425.1
76580
76914.8
78625.6
81525.1
92694
137994
154454
115804
85563.7
76512.2
73885.7
71877.7
71134.8
70853.6
76295.8
76363.3
76713.6
77341.7
80242.1
79823
105372
117123
112076
79162.1
75270.7
72788.2
71513.1
70897.8
70664.4
76127.9
76140.8
76208.4
76844.9
73935.4
75014
79526.6
47753.5
76408
75168.2
71089.1
71876
70956.3
70551.5
70387.8
75985.1
75951.2
75880.5
73399
72904.8
69214.9
58592.6
2162.38
47048.9
64335.6
66996.7
68396.5
70379.9
70205.1
70101.8
75916
75783
73609
72826.5
69973.8
65731.9
55803.7
1998.3
40815.4
60121
63150.1
67251.6
67588.7
69823.3
69862.7
75858
75714.5
73416
72504.1
68071.3
63085.1
48924.9
2375.77
43386.4
52981.6
59644.6
64119.2
67016
69562.1
69651.8
75903.3
75772.6
73449.5
71102.1
67611.6
60042.8
20019.5
9143.97
2300.47
36346.6
55286.3
61707.9
66699
69455.3
69575.7
76009.3
75903.6
73632.1
71351.4
68074.6
61280.2
30523.1
2292.56
5307.58
27366.2
54075.4
61474.8
66730.2
69509.8
69611.5
76173
76098.3
73901.3
73282.7
69146.6
65284.3
57015.6
2270.78
39185.2
48516.9
58176.8
63909.9
67118.3
69725
69777.5
76318.9
76344.4
76413.4
73836.6
71190.3
67229.8
56513
2402.41
43336.5
59586.4
62534.4
67415.9
70202.9
70059.9
69970.1
76497.4
76563.4
76759
77552.5
74598.6
75612.8
66982.1
2461.45
45236.5
67162.9
69716.2
71549.5
70730.7
70362.1
70217.9
76680.2
76794
77245
78057.3
81236.7
79480.5
99574.6
121523
97698.9
76205.8
74597.7
72465.7
71233.9