/*--------------------------------*- C++ -*----------------------------------*\
| =========                 |                                                 |
| \\      /  F ield         | OpenFOAM: The Open Source CFD Toolbox           |
|  \\    /   O peration     | Version:  v2012                                 |
|   \\  /    A nd           | Website:  www.openfoam.com                      |
|    \\/     M anipulation  |                                                 |
\*---------------------------------------------------------------------------*/
FoamFile
{
    version     2.0;
    format      ascii;
    class       volScalarField;
    location    "0.035";
    object      p;
}
// * * * * * * * * * * * * * * * * * * * * * * * * * * * * * * * * * * * * * //

dimensions      [1 -1 -2 0 0 0 0];


internalField   nonuniform List<scalar> 
449343
(
103383
103511
103723
103920
103998
103717
102902
101477
99496
97171.4
94797.4
92650.5
90924.1
89728.9
89120.4
103362
103490
103702
103899
103976
103693
102876
101451
99470.8
97147.9
94775.2
92628.3
90901.1
89705.2
89096.2
103340
103468
103680
103876
103950
103663
102843
101417
99439.3
97120.6
94751
92604.3
90875.6
89678
89068.1
103317
103445
103656
103851
103922
103627
102804
101375
99401.6
97088.9
94725.2
92579.4
90848.4
89648.4
89037
103293
103421
103632
103825
103891
103588
102760
101330
99360.8
97055.3
94699.1
92554.4
90820.5
89617.2
89004.1
103267
103396
103607
103797
103860
103549
102716
101286
99321.1
97023.6
94673.4
92529.5
90792.1
89585.3
88970.2
103240
103369
103579
103768
103827
103512
102675
101244
99283.7
96993.5
94645.8
92503.7
90762.7
89552.6
88935.9
103211
103340
103550
103738
103795
103478
102638
101204
99245.1
96960.3
94614.6
92472.4
90730
89518.7
88901.5
103180
103309
103519
103707
103764
103448
102611
101180
99218.4
96926.9
94578.5
92435.8
90694.5
89484.2
88867.4
103149
103277
103487
103675
103736
103423
102587
101156
99189.9
96891.4
94540.2
92395.4
90657.2
89449.7
88834.4
103118
103246
103455
103645
103708
103401
102570
101138
99166.4
96859.7
94502
92356.1
90621.1
89416.9
88803.4
103089
103216
103424
103615
103683
103383
102556
101125
99148.5
96833.5
94467.8
92320.4
90587.9
89386.9
88775
103061
103188
103396
103588
103658
103366
102541
101112
99131.2
96809.6
94437.5
92288.8
90558.5
89359.8
88749.3
103036
103162
103371
103563
103635
103346
102525
101095
99111.9
96786
94410.6
92261.5
90532.6
89335.5
88725.9
103014
103140
103348
103541
103614
103327
102506
101077
99091.8
96764.1
94387.4
92238.2
90510
89313.7
88704.6
103242
103418
103731
104083
104337
104280
103600
102110
99875
97209.9
94536.2
92189.9
90353.1
89104.5
88475.1
103221
103398
103711
104063
104315
104255
103573
102083
99849.1
97186.5
94514.4
92167.4
90329.4
89079.7
88449.8
103199
103376
103689
104041
104292
104225
103538
102048
99817.6
97162
94493
92143.9
90302.4
89050.6
88419.7
103176
103353
103668
104018
104265
104187
103491
101995
99773.8
97131.4
94471.8
92120.7
90274
89018.4
88385.8
103152
103330
103646
103995
104238
104140
103438
101941
99714.1
97099.9
94453.8
92099.4
90245.2
88984.6
88349.9
103126
103305
103622
103972
104209
104100
103388
101891
99675
97071.1
94436.8
92079.8
90217
88950.3
88313.2
103099
103279
103597
103945
104176
104066
103346
101847
99637.6
97049.3
94429.2
92061.9
90188.3
88916.4
88276.9
103070
103250
103567
103916
104144
104031
103304
101758
99591.3
97012.9
94399.3
92031.2
90154.6
88881.7
88241.2
103039
103219
103536
103882
104112
104001
103281
101785
99571.4
96981.3
94360.2
91992.5
90118.5
88846.5
88206.8
103007
103186
103501
103848
104084
103970
103256
101758
99541.5
96936.7
94301.2
91943
90079.3
88811.9
88174.4
102976
103153
103466
103812
104051
103948
103244
101745
99515.7
96900.8
94253.1
91897.3
90041.8
88780.2
88144.9
102946
103122
103433
103779
104022
103938
103238
101740
99516.7
96871.7
94209.9
91856.8
90008.4
88751.6
88118.5
102918
103093
103403
103750
103996
103922
103230
101737
99503.9
96845.4
94173.9
91822.5
89979.2
88726
88094.5
102893
103068
103377
103723
103971
103903
103216
101721
99483.9
96818.5
94143.4
91793.8
89953.8
88703
88072.6
102871
103045
103354
103700
103948
103883
103198
101704
99464.2
96795.7
94119
91770.2
89931.6
88681.9
88051.9
102881
103166
103707
104423
105144
105654
105379
103725
100812
97254.3
93845
91045.9
88969.5
87607.1
86934.3
102860
103145
103687
104404
105125
105631
105350
103696
100784
97229.1
93823
91022
88943.4
87579.6
86906.4
102836
103123
103668
104386
105107
105604
105308
103659
100751
97215.9
93808.7
90998.2
88912
87545.4
86871.1
102812
103101
103649
104371
105089
105561
105236
103598
100677
97189.1
93803.6
90978.7
88879.2
87506.7
86830.5
102787
103078
103632
104357
105070
105497
105116
103465
100566
97186.2
93805.9
90963.2
88847
87465.7
86786.8
102761
103056
103616
104343
105058
105439
105043
103407
100523
97176
93821.2
90954.3
88815.8
87424.9
86742.7
102734
103030
103592
104327
105019
105412
104993
103358
100482
97161.7
93910.3
90955.3
88790.5
87387
86701
102704
103002
103564
104300
104992
105386
104973
103350
100432
97117.9
93872
90921.6
88753.6
87349.6
86662.3
102672
102968
103529
104262
104952
105342
104922
103288
100413
97087.5
93833.7
90880.5
88715.9
87313.1
86627.1
102640
102933
103491
104215
104927
105303
104905
103270
100385
97035.5
93680.5
90811.9
88671.4
87279.5
86596.6
102608
102897
103447
104167
104875
105294
104911
103258
100358
96977.2
93596
90751.8
88633.5
87250.9
86571.4
102578
102864
103408
104124
104837
105300
104972
103331
100409
96919.1
93530.3
90702.6
88600.7
87226.6
86549.7
102551
102835
103375
104087
104801
105286
104986
103334
100424
96885.1
93475.5
90661.9
88573.5
87205.3
86530.4
102526
102809
103346
104056
104769
105263
104978
103319
100404
96847.7
93436
90631.2
88550.2
87185.5
86511.9
102504
102786
103323
104031
104745
105242
104962
103303
100384
96822.4
93409.6
90607.6
88529.4
87166.2
86493.1
102169
102613
103498
104798
106382
107969
108850
106883
102479
97051.9
92396.4
88968.5
86608.8
85132.2
84424.3
102146
102591
103478
104781
106366
107949
108812
106851
102445
97027.3
92372.5
88939.5
86576.9
85099.5
84391.6
102121
102567
103460
104770
106361
107936
108767
106824
102430
97036.1
92363.9
88908.4
86535.7
85055.8
84347.4
102093
102544
103445
104771
106360
107925
108556
106784
102285
97093.4
92393.8
88883.1
86488.8
85003.6
84294.2
102065
102521
103434
104769
106373
107838
107736
106436
103049
97209.5
92446.5
88873.9
86440.6
84946.4
84235.8
102036
102499
103434
104811
106425
107013
107579
106363
103042
98433.2
92539.7
88876
86397.5
84888.1
84176.9
102006
102475
103420
104801
105740
107013
107502
106278
102964
98416.8
93824.3
88874.9
86356.8
84838.7
84123.7
101975
102448
103397
104777
105710
106995
107486
106146
102918
98387.1
93769.9
88838.6
86324
84798.9
84078.3
101942
102409
103352
104732
105670
106947
107426
106183
102886
98346.2
93736.8
88796.3
86275.3
84758.3
84043.5
101911
102373
103304
104675
106284
106875
107401
106181
102861
98301.5
92391.3
88723.9
86241.6
84730.8
84018.7
101879
102333
103241
104568
106165
107615
107495
106201
102850
96988.8
92223.1
88646.5
86210
84714.2
84002.9
101852
102299
103195
104512
106093
107646
108266
106494
101999
96807.4
92103.1
88586.9
86188.5
84701.6
83991.6
101827
102271
103156
104457
106037
107595
108422
106475
102084
96685.1
92007.5
88547
86171.1
84690
83981.2
101805
102246
103126
104419
105993
107557
108417
106450
102040
96618.3
91957.5
88519.9
86155.1
84677.2
83969.2
101785
102224
103102
104392
105965
107531
108409
106434
102023
96589.9
91929.8
88499.1
86138.3
84661.7
83953.9
100905
101522
102805
104847
107711
111305
115128
112397
105000
95862
89494.2
85558.6
83077.7
81613.5
80940.6
100879
101497
102783
104830
107698
111294
115087
112370
104973
95837.1
89459.6
85515.5
83034.4
81572.4
80900.8
100847
101469
102761
104823
107717
111318
115063
112344
104987
95845.1
89435.3
85458.5
82972
81512.8
80843.1
100811
101438
102745
104858
107845
111429
112699
112382
106547
96236.9
89537.1
85411.2
82893.7
81437.4
80770.7
100772
101404
102736
104883
107882
109889
112611
112246
106566
98486.3
89625.5
85354.2
82804.6
81349.2
80688.2
100734
101381
102758
105046
106979
110028
112573
112052
106437
98663.2
91817.9
85369.8
82698.6
81262
80604.5
100694
101341
102723
104428
107015
110075
111595
111327
106749
99629.6
91955.6
87189.3
82571.8
81170.6
80528.1
100663
101319
102757
104404
107022
110070
111568
111259
106722
99624.7
91979.9
87201.5
82632.3
81117.2
80477.1
100626
101268
102651
104352
106968
110019
111505
111224
106661
99584.1
91928.3
87155.2
82477.1
81081
80438.8
100605
101251
102621
104900
106827
109873
111533
111206
106622
98557.4
91740.9
85206
82529.4
81088.9
80429.6
100578
101207
102530
104665
107653
109693
112325
111854
106212
98359.2
89386.9
85101.7
82549
81092.2
80430.8
100561
101184
102483
104582
107553
111121
112345
112036
106322
95936.9
89224.5
85086.8
82562.7
81104.8
80437.6
100545
101161
102444
104491
107369
110951
114670
111985
104616
95469.8
89046.7
85060.6
82570.9
81111.6
80442.1
100529
101142
102418
104452
107304
110869
114658
111939
104538
95393.5
89004.9
85054.6
82572.5
81111.4
80440.6
100511
101124
102397
104424
107270
110832
114653
111921
104505
95352.3
88979.2
85043.1
82564.3
81102.3
80430.6
98837.3
99580.2
101185
103937
108321
115219
120813
126204
112577
91418.7
83958.9
80283.4
78132.4
76987.8
76499.9
98805.2
99548.6
101156
103914
108312
115210
120788
126157
112504
91322.3
83879.7
80207.5
78070.2
76935.2
76451.4
98761.6
99506.7
101118
103881
108305
115237
120750
126088
112385
91179.8
83747.1
80077.4
77971
76853.3
76376.9
98708.9
99459.8
101087
103909
108662
113014
120786
126110
112275
95584.4
83725.9
79867
77834.2
76746
76279.9
98645.9
99393.9
101026
103940
107398
113252
121018
123612
113567
96186
86900.4
79630.2
77608
76602.7
76165.2
98588.5
99330.1
101041
103482
107460
112253
119184
122454
113479
98425.6
86961.2
81956.9
77372.9
76441.3
76044.5
98527.5
99256.1
100989
103480
107550
112244
118205
122357
113901
99324.2
88641.1
81930.6
77187.9
76296.1
75936.7
98482.6
99199.6
100958
103501
106863
111682
118160
122262
113808
99320.1
88586.3
81882
79096.1
76202.1
75871.8
98456.5
99184.3
100914
103435
106812
112110
118106
122211
113772
99292.4
88550
81807.5
77089.9
76195.9
75835.3
98452.7
99191.5
100891
103305
107389
112111
118026
122209
113783
99228.5
88562.3
81818.2
77185.7
76245.7
75846.7
98443.2
99184.7
100806
103703
107141
113021
118826
123181
113263
98088.4
86758.4
79345.8
77318.5
76311.3
75874.3
98449.4
99195.8
100811
103610
108331
112705
120442
125730
111934
95420.5
83381.3
79502.1
77460.6
76372.3
75906.7
98449.1
99187.8
100786
103530
107930
114830
120316
125643
111984
90796.4
83318
79631.7
77522.1
76405.8
75930.6
98445.5
99183.7
100779
103518
107894
114761
120299
125658
112024
90835.4
83369
79691.4
77556.6
76424.5
75942.6
98434.3
99171.7
100764
103496
107857
114723
120300
125663
112024
90820.6
83366.6
79702.4
77561.9
76424
75939.4
95743.4
96464.7
98075.1
101006
106006
112859
129363
159319
116996
84130.1
73818.4
72410.9
71609.3
71333.7
71251.8
95703
96423.1
98031.4
100960
105966
112825
129310
159251
116719
83861.1
73635.2
72274.6
71523.6
71269.2
71195.3
95640.2
96354.3
97953.1
100855
105821
112758
129179
159128
116447
83586.3
73372.5
72086.8
71386.7
71164.4
71106.1
95560.8
96267.8
97854.6
100604
105143
113059
129129
158915
116068
83469.7
76558.5
71607.8
71191.7
71020.1
70987.6
95453.6
96137.8
97628.4
100609
105115
112116
126100
158669
116867
87212.9
76083.5
73613.8
70798.7
70829.6
70842.9
95343.7
95948
98032.2
100621
104802
112022
124598
153538
121581
89084.3
78190.7
73350.4
72339.3
70606.8
70692.9
95264.8
95861.6
97981.1
100565
104768
111521
124403
153306
121460
89000.3
79357.1
74775.1
72180.9
70493.1
70579.6
95197.2
95792.6
97991.5
100536
104708
111423
124267
153143
121410
88974
79290.8
74692
72120.8
70433.3
70489.5
95189
95783.7
97910.6
100514
104680
111365
124190
153044
121440
88973.4
79271.5
74655.1
72042.5
70374.1
70461
95202.3
95804.3
97885.6
100416
104638
111348
124188
153033
121390
88928.4
79258.3
74658
72081.1
70376.8
70463
95241.7
95915.8
97392.8
100360
104828
111787
124280
153148
121402
88922.7
78118.3
73195.7
70462.5
70489.9
70506.7
95290.9
95990.8
97563
100282
104679
112571
125703
158223
115940
87282.9
76052
71175.2
70749.4
70590.5
70562
95319.5
96026.4
97608.6
100488
105416
112292
128629
158446
116124
83227.7
72896.8
71577.3
70878.7
70658.7
70602.8
95335.5
96049.4
97643.8
100549
105518
112334
128700
158590
116227
83301.5
73051.8
71687.9
70945.5
70697
70626.8
95333.1
96048.1
97644.1
100551
105515
112315
128740
158640
116276
83316.9
73106.4
71741.8
70965.9
70704.6
70629.2
91557.1
92001.1
92987.5
94791.2
97749.3
104449
111873
109494
28243
54886.2
59310.8
62141.7
63956.8
65109.2
65637
91508.9
91950
92931.2
94723.1
97687
104386
111818
109384
24453.6
54039.4
58980.7
61977.3
63860.9
65039.8
65578
91429
91857.3
92827.4
94624.4
97539.7
104247
111685
109261
23707.5
53528.8
58674.4
61811
63739.8
64937.7
65489.4
91320.4
91719.3
92662.6
94290.2
98739.5
103785
111380
109070
23736.6
53400.6
59872.9
61719.1
63563.9
64800.2
65377.5
91177
91538.4
92391.3
95343
98437.5
104105
112059
108780
24062.9
56499.1
61183.8
62809.9
63529.9
64681
65251.6
91013.5
91353.3
93439.9
95167.6
98822.2
104254
111760
108330
24306
56752.9
62007.1
62802
64427
64610.9
65129.1
90927.1
91255.2
93361.2
95031.6
98992.6
104100
111531
108000
24713.9
56833.4
62074.1
63626.2
64299.7
64543.1
65041.6
90861.1
91175.7
93279.1
95596.2
98919.6
103981
111361
107733
25031.6
56968.1
62114.7
64049.1
64275.9
64491.9
64953.3
90846.2
91170.4
93240.6
95542.4
98865.9
103912
111263
107616
25512.6
57182.5
62122.2
63999.4
64173.5
64394.1
64897.6
90863.8
91195.6
93252.4
94904
98832
103902
111259
107635
25346.8
56985.8
61994.3
63449.3
64100.9
64323.8
64852
90956.9
91312
92145.3
94999.2
98594.6
103957
111365
107778
24839.1
56645.5
61750.6
62381.6
63083.4
64274.9
64855.6
91044.8
91434.8
92355.6
93959.1
98267.3
103024
110529
108123
24882.3
54903.3
59283.9
61204.9
63081.9
64305.8
64886.2
91102.2
91523.4
92476.2
94238
97117.9
103540
110910
108292
25028.5
53243.5
58166.3
61235.3
63153
64360
64916.5
91137.2
91571.9
92539.1
94308.2
97237.9
103835
111126
108473
24783.4
53340
58303.9
61315.8
63209.2
64395.3
64939
91143
91581
92553.7
94334
97258.7
103896
111205
108575
24319.7
53399.9
58421.7
61369.1
63227.3
64403.6
64941.7
86542.4
86467.6
86292.8
86021.8
86029.8
90075.6
93830.3
107006
20533.8
34322.5
45839.2
52439.5
56784.3
59329.2
60473.4
86491.8
86413.9
86236.6
85961.5
85985.4
90011.2
93771.2
106802
4414.86
33227.7
45509
52297
56693.4
59263.2
60418.3
86410.2
86323.7
86141.6
85903.4
85910.9
89877.9
93642.3
106681
3756.64
32797.6
45332.4
52196.8
56612.1
59188.3
60345.9
86303
86189.2
86007.3
85915.3
88596.2
89782.5
93385.2
106511
2416.26
32733.4
45359.9
52294.6
56544.5
59114.6
60268.4
86172.4
86036.1
85908.3
87818.1
88566.5
91534
94376.5
106429
2344.92
32282.1
45800.8
52858.6
56573.2
59074.5
60197.1
86031
85960.6
87397.5
87674.8
89707.5
92236.7
94176.2
105952
2345.12
32464.7
46021.1
52754.3
57061.8
59035.5
60126.8
85956.8
85893.9
87238.2
87578
90254.9
92068.1
93992.4
105730
2315
32642.7
46036.7
53016.7
56957.8
58957.4
60045.4
85892.9
85820.5
87130.7
88468.2
90139.7
91934.7
93828.6
105389
2675.68
33346.7
46099.8
53142.7
56840.4
58879.7
59943.8
85872.9
85804.7
87088
88409.7
90074.8
91849.8
93711.5
105089
9757.36
34811.4
46110.9
53042.8
56737.7
58767.9
59865.9
85871.6
85790.7
87110.4
87451.4
90058.3
91837.7
93682.6
105007
17080.5
33748.6
45849.9
52722.5
56674.5
58675.6
59785.5
85946.5
85803.4
85648.1
87441.6
89463.4
91920.9
93758.9
105193
3543.12
32364.6
45551.7
52223.5
56025.1
58581.1
59723
86023.2
85902.4
85703.4
85575.6
88265.6
89497.8
93024.8
105754
3191.73
32097
44876.2
51634.3
55935.8
58524.3
59692.6
86081.2
85990
85798.8
85546.9
85522.6
89396.9
92987.8
105882
5125.99
32260.9
44688.4
51521.9
55937.3
58524.3
59688.4
86119.8
86038.1
85852.4
85563.2
85572.3
89502.4
93165.6
106078
2776.07
32382.1
44758.4
51541.9
55956.2
58536.3
59699.5
86128.8
86050.6
85868.5
85584.4
85578.5
89572
93248.4
106175
13590.8
32436.8
44843.1
51565.8
55963.3
58539.2
59696.5
81392.5
80740.3
79380.6
77198.6
76858.7
75762.2
78287.5
2326.31
26075.8
38636.3
46515.1
51982.7
55258.7
56783.5
81343.1
80688.6
79328.4
77149.5
76803.5
75700.2
78225.6
2295.13
25248.4
38418.2
46420.2
51906.1
55199.6
56732
81269.7
80615.3
79246.3
77074.1
76767.8
75637.1
78109.9
2293.16
24742.4
38358
46341
51840.2
55138.7
56667.4
81187.3
80528.8
79149.3
77175
77009.4
75534.4
77908.6
2294.07
24680.7
37196.4
46450.6
51795.2
55089.1
56600.6
81106.7
80447.7
79210
79156.7
77522.7
77579.4
78566.5
2288.69
22338.6
36548.5
45884.5
51790.3
55053.1
56537.1
81025.8
80491.4
80585
79345.7
78807.9
78506.3
78518.2
2298.22
22212.4
36160.5
45799.5
51499.3
54945.4
56463.9
80969.8
80445.1
80472.9
79358
79503.2
78466.8
78452.5
2290.44
22175.2
36007.9
45389.3
51380.5
54807.4
56348.6
80905.8
80383.4
80387.1
80130.9
79492.8
78345.8
78293.1
2270.32
22449.7
35736
45077.9
51198.8
54680.3
56215.7
80881.2
80350.1
80337.5
80083
79405.5
78221
78142.6
2166.37
20913.9
35281.9
44841.8
51052.5
54556.8
56121
80857.6
80309.8
80330.9
79171.8
79263.8
78143.1
78065.6
2294.9
20431.4
34933
44795
50958.4
54481.7
56037.6
80874.6
80207.3
78934.6
78844.5
78445
78099.8
78066.2
2364.98
20202.8
34937.6
44978.6
51085.3
54440.8
55962.7
80904.2
80239.6
78851.7
76849.1
76718.8
75324.2
77262.1
2296.15
21900.8
36271.2
45618.5
51036.1
54377.7
55921
80941.2
80285.5
78915.7
76752
76423.9
75253.1
77632.4
2296.38
24075.7
37601.6
45561.6
51053.9
54373
55914
80973.6
80319.6
78961.3
76785.8
76464.3
75319.5
77774.9
2294.33
24423.7
37644.1
45595.4
51082.3
54381.8
55919.4
80982.5
80331.7
78976.3
76800.2
76437.6
75341.8
77830.8
2299.26
24507.6
37684
45599
51089.5
54384.7
55917.4
77016.3
75830.7
73338.7
68958.7
66656.7
59042.7
54751.7
4169.14
2287.79
24106.4
36503.1
44700.2
50324.5
53702.1
55320.9
76961.4
75771.6
73271.3
68879.6
66574.6
58940.6
54622.4
2528.7
2296.86
23850.9
36366.3
44628
50248
53642.5
55265
76880.2
75689.3
73163.7
68728.3
66456
58785.4
54492.9
2287.28
2295.64
20257.2
36384.6
44556.3
50170.3
53568.1
55186.4
76793.6
75607
73008.3
68612.1
66333.6
58597.6
54380
2618.15
2299.61
20637.5
33762.4
44515.9
50076
53489.4
55091.5
76722.4
75520.9
72887.7
71495.2
66092.8
61519.4
56308.7
3335.41
2295.68
18522.4
32386.9
42726
49963.9
53410.4
54985.4
76656.5
75460.1
74717.5
71301.6
68001.9
62934.8
56641
2288.45
2293.79
18403.9
31574.2
42496.1
48728.5
53236
54862
76587.1
75377.9
74624.8
71100
68759.1
62946.1
56905.1
3240.47
2297.81
17986.9
31155.4
41394.4
48522.2
53035.5
54695.9
76513
75309.5
74524.1
72344.7
68607.2
62696.7
56423.5
2310.98
2343.46
16479
30364.5
40605.7
48271.9
52855.4
54528.9
76490.8
75272
74475.3
72283.8
68470.1
62453
56114.6
3830.3
2231.73
13411.2
29410.2
40216.3
48077.9
52713.8
54411.4
76479.6
75265.8
74495.8
70895.8
68430.9
62330.9
55978.7
2390.4
2253.23
12941.4
29044.3
40491.8
47969.5
52649.9
54335.1
76482.1
75266.9
72599.3
71125.1
67603.6
62317.8
55897.6
2220.54
2230.32
14014.3
29539.1
41447.9
49068.7
52645.7
54289.1
76505.9
75313
72708.2
68312
65917.3
58268.1
54124.6
2775.75
2260.48
17887.5
32541.9
43547.6
49179
52654.6
54293.6
76550.5
75361.6
72841.4
68430.7
66079.1
58484.7
54302.7
2531.86
2301.39
20365.2
35658.9
43699.5
49277.7
52694.9
54322.1
76592.1
75407.5
72920.7
68556.6
66244.4
58637.5
54362.4
2411.21
2296.35
23678.8
35695.2
43804.3
49352
52732.5
54351.1
76607.4
75428.4
72952.5
68602
66297.6
58712.1
54394.6
2463.94
2296.68
23430.9
35761.7
43808.4
49379
52746.8
54360.1
74239.2
72649.3
69265.2
63258.1
52844.7
42997.7
18160.3
2312.69
2303.4
26511.9
38479.4
46350.2
51625
54775.3
56278.7
74167.1
72568.2
69157.1
63117.2
52640.6
42773.2
18182.1
2268.5
2302.59
26115.7
38314.7
46241.6
51530.5
54703
56210.9
74054.2
72446.8
68997.4
62928.2
52343.3
42303
17952.8
2264.46
2301.28
21229.6
38078.9
46119.3
51410.4
54593.7
56105.9
73922.4
72321.2
68784.5
62703.5
56650.1
41887.3
17999
2277.55
2300.17
21090
34151.2
45937.8
51240.4
54450
55966.8
73803.3
72197.3
68642.3
65165.9
56595.6
45817.2
24562
2276.02
2288.45
18112.5
32231.5
43075.7
51036.2
54299.2
55803.7
73700.1
72065.5
70189.4
65052.1
58802.5
48133
26720.1
2276.13
2292.43
18027.4
31061
42722.7
48956.9
54074.8
55618.4
73594.7
71938
70119.4
64857.4
59674.8
48427.9
29212.2
2341.09
2382.31
17487.8
30477.2
41022.4
48635.4
53821.7
55401.9
73514.9
71855.5
70013.8
66101.9
59386.3
47724.5
25892
2300.59
2295.1
15292.9
29427.4
39851.8
48303.1
53590.3
55200.7
73497.1
71828.5
69960.3
66012.5
59180.3
47228.6
25203.4
2300.07
2281.81
11805.1
28300.9
39360.7
48061.2
53421.7
55054.6
73516.8
71865.7
69979.9
64620.9
59170.6
47067.2
25013.5
2277.64
2223.63
10858.8
28005.3
39884
47964.2
53362
54981.1
73555.6
71933.6
68346.9
64838.7
58260.9
47042.2
24862.8
2226.21
2208.78
13727.4
28779.2
41487.2
49951.4
53379.8
54967.5
73627.3
72022.4
68483.8
62414.2
56310.5
41727.3
19577.7
2215.63
2275.07
17956.3
32888.7
44818.8
50181.7
53471.1
55028.7
73716.9
72115.3
68681.2
62656.2
52179.5
42108
18362.6
2272.67
2305.5
21095.4
37376.5
45150
50396.1
53588
55110.8
73789.6
72200
68813.3
62826.1
52443.3
42477.9
18322.8
2296.98
2303.49
25972.4
37654.7
45344.7
50538.2
53677.1
55178.9
73821.9
72242.7
68884.2
62929
52596.1
42745.8
18161.7
2293.22
2302.06
25854.3
37798.3
45403.7
50603
53715.7
55207.3
73699.6
72067.6
68569
62501.3
51942.7
40248.2
6540.41
2311.17
7025.16
33699.9
44342.4
51158.6
55586.4
58162.6
59385.3
73603
71955.5
68405.7
62237.9
51629.5
39460.3
5395.74
2243.75
5257.45
33221.2
44041.1
50979.8
55458.6
58070.2
59301.5
73449.2
71783.3
68165.4
61909.8
51689.9
38031.5
6855.51
2275.49
2304.39
25563
43789.9
50804.5
55278.9
57925.9
59170.5
73265.4
71596.8
67911.7
61628.4
53568.8
37060.2
8556.68
2289.7
2300.39
25260.1
38719.1
50554.2
55040
57730.2
58994.5
73095.6
71430
67765.9
62895.8
53153.1
39504
17719.6
2283.48
2297.03
20969.5
36058.5
46954.3
54813
57530.4
58791.1
72950.7
71278
68477.3
62633
54526.2
41029.6
19429.4
2288.29
2298.37
20848.8
34489.9
46486.4
52138.2
57300.9
58568
72814.3
71114.8
68343.5
62383.3
55013.7
41238.6
22987.6
2264.7
2229.91
20307.1
33834.3
44295.2
51717.4
57009
58312.7
72729.1
71019.2
68234.5
63193.9
54671.2
40462.9
18797.6
2225.46
2296.63
18112
32693.3
42813
51312.1
56728.2
58078.5
72717.4
71008.6
68195.9
63114.1
54485.3
39987.9
17916.1
2287.93
2293.05
15622.4
31532.2
42214
51001.2
56519.5
57900.8
72765.4
71081.3
68228.7
62226
54558.2
39945.5
18046.7
2283.74
2267.58
15390.7
31240.8
42842.3
50891.7
56444.7
57820.9
72840.9
71163.8
67481.4
62515.6
54083.4
40084.8
17421.4
2247.28
2226.56
17273
31973.4
44973
53492.4
56449.7
57822.3
72957.2
71289.6
67611.1
61365.7
53112.5
37243.3
17113
2270.55
2301.48
21241.9
37053.1
49138.8
53774.7
56595.8
57920.2
73093
71435
67840.3
61646.9
51527
37696.1
9317.36
2295.27
7922.72
25569.1
42878.7
49631
54101.4
56777.6
58044.9
73202.7
71566.1
68045.4
61946.6
51505.5
39251.8
6916.22
2283.02
7989.41
33320.8
43303.2
49933.6
54325.8
56913.8
58146.8
73257.5
71637.5
68167.6
62169.6
51722.9
40119.4
6295.24
2290.7
4460.8
33378.7
43418.2
50053.6
54437.1
56978.2
58194.6
75614.8
74420.7
71892.6
67844.4
59264.6
50121.1
14532.1
2322.8
33676.2
50501.6
54798.6
59178.5
61872.4
63427.8
64189.2
75492.9
74270.2
71658.4
67372
58336.4
48576.6
4940.85
2320.12
31669.2
49742.3
54322.2
58923.9
61711.1
63318.4
64095.1
75299.1
74042.2
71337.2
66753.8
59877
45548.2
14590.1
2410.22
16611.5
38787
54264.7
58646.7
61478.2
63152.3
63946.1
75064.5
73764.5
70916.1
66147.3
58386.4
43503.5
14961.2
2311.2
2311.42
36337
48164.9
58330.9
61184.6
62929.3
63749.8
74843
73507.6
70609.2
65675.8
57059.1
42982.2
19785.1
2298.1
2305.44
29129.7
44802.8
54290.9
60974.7
62710.6
63531.5
74653.6
73313.7
70271.3
64971.2
56672.9
42479.4
18831.4
2295.03
2316.23
28821.1
42816.6
53854.3
57958.9
62512.7
63307.6
74485.6
73109
69957.7
64526.2
56347.2
41685.4
17294
2302.25
4563.78
28502.6
42184.6
51344
57501.4
62206.2
63031.2
74394.5
73003.8
69812.2
64629
55911.9
41193.7
18153.9
2468.96
2300.93
25710.9
40798.4
49588.3
57052.1
61892.5
62772
74390.6
73010.5
69800.1
64586.7
55835.7
41116.8
18501
2208.06
2240.14
20849.8
39035.3
48739.1
56640.4
61638.1
62560.5
74467.5
73123.6
69909.9
64548.2
56157.5
41517.6
18648.4
2261.85
2169.04
21917.6
38453.6
49302.8
56436.1
61521.1
62460.8
74577.9
73237
70334.1
65056.5
56611
42500.8
19244.2
2292.75
2289.06
24162.8
39249.6
51732.6
59380.3
61472.7
62445.9
74733.5
73435.7
70599.7
65877.8
57529.9
43402.8
20486.4
2287.59
2308.11
29466.1
45590.5
56500.4
59677.4
61638.4
62552.9
74909.2
73656.5
70968.2
66442.4
59597.1
44936.8
17235.7
2363.59
13790.2
37012.3
52840.4
57163.6
60095.2
61853.6
62697.2
75052.2
73836.9
71248.5
67019.6
58264.8
48659.9
7447.99
2319.53
32318.3
49230.7
53248
57648.8
60404.4
62022.6
62819.6
75129.2
73943.2
71435.5
67438.2
59045.1
49853.3
16303.2
2323.82
35321.6
50401.3
53630.7
57915.1
60566.7
62109.3
62881.8
79490.8
79086.8
78312.1
78341.6
77433.9
86173
125118
112640
89211.8
75085.3
69838.4
69818.5
69742.1
69915.1
70076.9
79351.1
78899.4
78018.4
77693
76153
84243.1
121932
95423
84256.4
73668
69132.6
69470.9
69552.8
69794.5
69977.5
79127.3
78611.5
77616.4
76221.5
75575.7
69286.5
76232.3
63321.6
56150
62609.9
68476.6
68859.2
69264.9
69612.7
69819.7
78850.3
78249.1
76992.6
75209.2
69951.9
62991.3
46095.5
13593.1
27416.6
59023.2
63101.2
68294.5
68909.3
69377.3
69616.2
78586.7
77908.6
76524.4
72668.3
68066.8
58056.3
35099.4
2356.6
15235.9
48392.4
59351.4
64750.7
68636.4
69147.9
69395.9
78365.6
77655.7
74940.9
71712.5
65590
54428.6
29642
2262.37
17047.3
47337.2
57158.4
64378.7
65887
68897.1
69182.9
78174.1
77421.5
74487.4
71121.7
64162.2
52107.7
26988.1
2253.28
20318.2
49327
57110.1
61917.9
65467.8
68602.6
68912.2
78079
77312.8
74309.6
70317.1
63463.7
50919.7
26121.9
2443.81
7601.84
47900.9
55893.4
59982.8
65010
68296.7
68652.1
78079.2
77327.9
74315
70312.1
63452.7
50963
26606.9
2274.66
2307.85
31726.4
52096.1
58752.7
64512.3
68019.5
68416
78172.8
77463.3
74492.9
71252.9
64106.7
52165.1
27132.4
2306.7
2284.41
32173.5
50127.8
59019
64122.5
67871
68295
78299.8
77613.9
76212.1
71816.5
65688.3
54727.4
31836.3
2394.45
12100
37450.3
51335.3
61508.9
66903.3
67812.9
68240.3
78481.1
77873.5
76610.2
74818
68630.6
61849.8
40313.8
5018.12
18607
47775.6
59220.3
66130.2
67208.8
67969
68333.6
78685.4
78160.9
77147.7
75758.6
75033.7
65897.2
62749.1
51902.8
54281.2
58976.7
66397.1
67043.7
67688.6
68190.4
68476.6
78851.1
78394.5
77511.8
77183.1
75839.3
84012.3
122747
100118
84520.9
72355.8
67544.2
67914.3
68062.8
68374.9
68604.5
78942.3
78533.6
77751.7
77748.2
76963.6
85286.2
124148
112329
88819.5
73777.6
68303.9
68351.4
68268.2
68477
68672.4
84214.1
84596.5
85318.1
88398.1
93045.1
98555
124954
125439
108472
91772.8
83694.8
80043
77619.8
76614.5
76216.9
84087
84422.7
85109.1
88040.2
92615.5
98911.6
129394
136452
109813
91500.6
83249.5
79766.9
77457.3
76502
76125
83873.4
84105.8
84795.9
86425.2
91052.1
94598.1
117134
140914
113018
90137
82302.6
79050.7
77186.3
76317.6
75973.8
83597.7
83734.4
84132.9
85314
85356
91922.3
112779
150002
113749
88178.8
79935.4
78206
76787.1
76070.9
75772.6
83332.4
83383.5
83552.7
82097
83078.9
83978.8
91486.5
159295
97148
81387.7
77323.7
76041.2
76409.6
75810.3
75547.7
83119.1
83031.8
81433.8
81091.2
79446.7
77917.3
77459.6
79867.6
80216.9
78470.7
75456.4
75463.8
74490.7
75488.8
75320.2
82932.5
82795.7
81031.2
80403.9
77009.4
73819.5
62717.1
2274.04
79714.9
80956.3
75259
73864.3
74131.7
75197.3
75065.7
82843.3
82701.1
80870.3
78949.6
76214
71363.9
55092.5
2284.47
215823
100508
74956.1
72527.6
73665
74927.6
74829.2
82836.1
82706.9
80883.7
78977.9
76276.9
71561.1
55583.8
2299.99
2168.03
72960.6
70704
71232.5
73226.3
74680.7
74614.4
82914.4
82830.2
81039.1
80530.6
77041.4
73922.5
61951.3
2187.17
2204.96
53592.2
67482.7
71160.9
72894.5
74546.9
74487.3
83014.4
83047.6
83176
81181.4
79349.1
77457.2
76251.5
51473.2
50609.1
63522.8
68477
72789
74787
74533.8
74414
83179.4
83290.6
83630.3
84677.4
83507
87831.1
95904.2
129392
86014
76256.4
75266.1
75994.7
75072.7
74652.9
74478.6
83368.9
83571.9
84182
85684.4
89908.7
92227.2
112573
136637
106573
85690.6
79733.9
77026.8
75513.6
74843.7
74595.1
83519
83829.3
84467
87278.4
91712.2
97556.3
126616
129513
107205
89056.3
81210.7
77981.4
75837.6
75012.3
74702
83595
83952
84628.9
87573.4
92161.5
97297.2
123468
123638
105626
89391.9
81737.8
78314.5
76002.3
75100.4
74756.7
88489.3
89208.3
90288.7
92902.8
97421.3
96672.4
101490
105740
101705
95039.4
90435.1
86661.6
83812.4
82404.9
81725.1
88426.5
89135.9
90312.2
93188.8
98098
98692.9
105864
113072
103812
96133.9
90772.9
86706.5
83774.3
82344.2
81665.4
88305.7
88930.7
90354.8
92866.1
97464.3
100755
108079
119234
106497
97777.9
90535.8
86466.9
83687.5
82221.8
81561.1
88117.8
88698.2
90020.6
92824.8
94732.6
102579
115224
128931
116809
99210.1
90601.8
86133.5
83468.8
82035.1
81404.7
87907
88426
89628.4
90305.8
94320.4
101035
117849
148565
123889
101361
90258.1
85194.1
83193.7
81801.4
81209.9
87710
88043.1
87958.5
89556.4
91797.6
98396.6
118231
164701
127273
100835
89699.6
84942.3
82140.5
81460.4
80985.9
87555.8
87844.7
87735.9
89089.4
90229.8
96204.7
111857
159467
124288
96101.2
88743.6
84211.4
81883.4
81209.3
80763.8
87483.3
87768.5
87627.4
88021.6
89788.6
94904.8
106036
139184
86405.6
83839.4
87503.8
83496.2
81538.3
80974
80559.8
87458.2
87757.7
87642.6
88068.6
90061.2
95909.7
108320
138151
120438
91666.6
86802.2
82869.3
81181.1
80759.6
80364.7
87496.8
87835.9
87713.3
89231.1
90537.9
97494.5
116487
182561
129541
94475.2
85962.1
82484.8
80901.5
80619.6
80231.6
87564
88059.1
89206.5
89590.7
91659.2
97956.8
116064
152733
114112
93528.1
85629
82758.6
81684.7
80629.7
80154
87658.9
88199.8
89427.3
92019.8
93564.1
101261
113464
135811
113314
94996.9
87139.6
84089.3
81856.2
80691.7
80169
87751.1
88332.6
89643.5
91966.2
96241.3
100098
108940
121169
105339
95104.8
88173.2
84515.6
82058.6
80786.5
80216.9
87804.8
88472.2
89563.1
92242.7
96860.4
96760.7
102921
108589
101102
93300.9
88635.9
84878.2
82147
80866.9
80257.4
87815.9
88493.6
89508.7
91945.6
96341.5
95351.6
99992.6
103791
98933.5
92695.2
88372.1
84840
82164.2
80889
80269.7
91623.4
92249.5
93076
94100
97031.1
96251.7
96666.9
100394
96908.2
94546.1
92458.5
89966.8
87902.6
86731.1
86074.3
91641.7
92294.1
93244.8
94667.2
97942.2
97858.3
99042.1
101106