/*--------------------------------*- C++ -*----------------------------------*\
| =========                 |                                                 |
| \\      /  F ield         | OpenFOAM: The Open Source CFD Toolbox           |
|  \\    /   O peration     | Version:  v2012                                 |
|   \\  /    A nd           | Website:  www.openfoam.com                      |
|    \\/     M anipulation  |                                                 |
\*---------------------------------------------------------------------------*/
FoamFile
{
    version     2.0;
    format      ascii;
    class       volScalarField;
    location    "0.035";
    object      p_rgh;
}
// * * * * * * * * * * * * * * * * * * * * * * * * * * * * * * * * * * * * * //

dimensions      [1 -1 -2 0 0 0 0];


internalField   nonuniform List<scalar> 
449343
(
103245
103373
103585
103783
103861
103580
102765
101340
99358.6
97034.1
94660.1
92513.2
90786.7
89591.6
88983
103244
103372
103584
103781
103858
103575
102758
101333
99353.1
97030.2
94657.5
92510.6
90783.4
89587.5
88978.5
103242
103370
103582
103778
103852
103565
102745
101319
99341.2
97022.5
94652.9
92506.2
90777.5
89579.9
88970
103238
103367
103578
103772
103844
103549
102725
101297
99323.1
97010.4
94646.7
92500.9
90769.9
89569.9
88958.6
103234
103362
103573
103766
103833
103529
102701
101271
99301.9
96996.5
94640.2
92495.6
90761.6
89558.3
88945.2
103228
103357
103567
103758
103820
103510
102677
101247
99281.9
96984.4
94634.2
92490.3
90752.9
89546
88931
103220
103349
103560
103749
103807
103492
102656
101224
99264
96973.8
94626.2
92484
90743.1
89533
88916.3
103211
103340
103550
103738
103795
103478
102638
101204
99245.1
96960.3
94614.6
92472.4
90730
89518.7
88901.5
103200
103329
103538
103727
103784
103468
102631
101200
99238
96946.5
94598.1
92455.4
90714.1
89503.8
88887
103189
103317
103526
103714
103775
103462
102627
101195
99229.1
96930.7
94579.4
92434.6
90696.4
89489
88873.6
103177
103305
103514
103703
103767
103460
102629
101196
99225.2
96918.6
94560.9
92415
90679.9
89475.8
88862.3
103167
103294
103503
103694
103761
103462
102635
101203
99227
96912
94546.3
92398.8
90666.4
89465.4
88853.5
103159
103286
103494
103686
103757
103464
102640
101210
99229.3
96907.7
94535.6
92386.9
90656.6
89457.9
88847.4
103154
103280
103488
103681
103753
103464
102643
101213
99229.6
96903.7
94528.3
92379.2
90650.3
89453.2
88843.7
103151
103277
103486
103679
103751
103464
102644
101214
99229.2
96901.5
94524.7
92375.5
90647.3
89451
88841.9
103105
103281
103594
103946
104199
104142
103463
101973
99737.7
97072.5
94398.9
92052.6
90215.8
88967.2
88337.8
103104
103280
103593
103945
104197
104138
103455
101965
99731.4
97068.8
94396.7
92049.7
90211.6
88962
88332.1
103101
103278
103591
103943
104194
104127
103440
101949
99719.5
97063.9
94394.9
92045.8
90204.3
88952.5
88321.6
103097
103275
103589
103940
104187
104108
103413
101917
99695.3
97052.9
94393.3
92042.2
90195.5
88939.9
88307.4
103093
103271
103587
103936
104179
104081
103379
101882
99655.2
97041
94395
92040.5
90186.3
88925.7
88291
103087
103266
103583
103932
104170
104060
103348
101852
99635.8
97031.8
94397.6
92040.5
90177.8
88911.1
88273.9
103079
103259
103577
103925
104156
104046
103327
101827
99618
97029.7
94409.6
92042.3
90168.6
88896.8
88257.3
103070
103250
103567
103916
104144
104031
103304
101758
99591.3
97012.9
94399.3
92031.2
90154.6
88881.7
88241.2
103059
103238
103555
103902
104132
104020
103301
101804
99591.1
97000.9
94379.8
92012.1
90138.1
88866.1
88226.5
103046
103225
103540
103887
104123
104009
103295
101797
99580.7
96975.9
94340.4
91982.3
90118.6
88851.2
88213.6
103035
103212
103525
103870
104110
104007
103303
101803
99574.5
96959.7
94312
91956.2
90100.6
88839
88203.8
103024
103200
103511
103858
104100
104016
103317
101818
99595.2
96950.2
94288.3
91935.3
90086.8
88830
88196.9
103016
103191
103501
103848
104094
104020
103329
101835
99602
96943.5
94272
91920.6
90077.3
88824.1
88192.6
103011
103185
103494
103841
104088
104021
103333
101839
99601.6
96936.2
94261.1
91911.5
90071.5
88820.7
88190.3
103008
103182
103491
103838
104085
104020
103335
101841
99601.6
96933.1
94256.4
91907.5
90068.9
88819.2
88189.3
102744
103028
103570
104285
105007
105517
105242
103588
100674
97116.9
93707.7
90908.6
88832.2
87469.7
86797
102742
103027
103570
104286
105007
105513
105232
103578
100667
97111.4
93705.3
90904.2
88825.7
87461.8
86788.6
102738
103025
103570
104288
105009
105506
105210
103561
100653
97117.8
93710.6
90900.1
88813.9
87447.3
86773
102734
103022
103571
104292
105011
105483
105158
103520
100599
97110.6
93725.1
90900.2
88800.7
87428.2
86752
102728
103020
103573
104298
105011
105438
105057
103407
100507
97127.4
93747.1
90904.3
88788.1
87406.9
86727.9
102722
103017
103577
104304
105019
105400
105003
103368
100483
97136.8
93781.9
90915.1
88776.6
87385.7
86703.5
102714
103011
103573
104307
104999
105392
104973
103338
100462
97142.1
93890.6
90935.7
88770.8
87367.4
86681.4
102704
103002
103564
104300
104992
105386
104973
103345
100432
97117.9
93872
90921.6
88753.6
87349.6
86662.3
102692
102988
103549
104281
104972
105362
104942
103307
100432
97107.1
93853.3
90900.1
88735.5
87332.7
86646.7
102679
102973
103530
104254
104966
105342
104944
103310
100424
97074.8
93719.8
90851.1
88710.6
87318.7
86635.9
102667
102956
103506
104226
104934
105353
104970
103317
100417
97036.1
93654.8
90810.7
88692.4
87309.7
86630.2
102656
102942
103487
104203
104916
105379
105050
103410
100487
96997.6
93608.8
90781
88679.2
87305.1
86628.2
102649
102933
103473
104185
104899
105385
105085
103432
100522
96983.2
93573.6
90760
88671.6
87303.4
86628.5
102644
102927
103464
104173
104887
105381
105096
103437
100522
96965.4
93553.7
90749
88667.9
87303.2
86629.6
102642
102924
103460
104168
104882
105379
105099
103440
100522
96959.7
93546.9
90744.9
88666.7
87303.5
86630.4
102032
102475
103361
104661
106245
107832
108713
106746
102342
96914.5
92259
88831.2
86471.5
84994.8
84286.9
102029
102473
103360
104663
106248
107831
108695
106733
102327
96909.6
92254.8
88821.7
86459.1
84981.8
84273.9
102023
102469
103362
104672
106263
107838
108669
106726
102332
96938
92265.8
88810.3
86437.6
84957.7
84249.3
102015
102465
103367
104692
106282
107846
108477
106706
102206
97014.9
92315.3
88804.6
86410.3
84925.1
84215.8
102006
102462
103375
104710
106314
107779
107672
106372
102985
97150.6
92387.7
88815.1
86381.7
84887.6
84176.9
101997
102460
103395
104772
106386
106969
107535
106318
102998
98389.1
92500.5
88836.7
86358.2
84848.9
84137.6
101986
102455
103400
104781
105715
106988
107477
106254
102940
98392.2
93799.7
88855.3
86337.1
84819
84104.1
101975
102448
103397
104777
105705
106990
107481
106141
102913
98382.1
93765
88838.6
86324
84798.9
84078.3
101962
102429
103372
104751
105685
106962
107441
106197
102900
98360.9
93751.6
88815.9
86294.9
84777.9
84063.2
101950
102412
103343
104714
106323
106909
107435
106216
102896
98335.8
92430.6
88763.2
86280.8
84770.1
84058
101938
102391
103299
104627
106224
107674
107549
106255
102903
97047.7
92282
88705.4
86268.8
84773.1
84061.8
101930
102378
103273
104590
106172
107725
108345
106573
102077
96885.9
92181.6
88665.4
86267
84780.1
84070
101926
102369
103254
104555
106135
107693
108520
106574
102182
96783.2
92105.6
88645.1
86269.2
84788.1
84079.3
101923
102364
103244
104537
106111
107675
108535
106567
102158
96736
92075.2
88637.6
86272.8
84795
84086.9
101922
102362
103240
104530
106102
107669
108546
106571
102161
96727.2
92067.1
88636.4
86275.7
84799
84091.3
100768
101385
102668
104710
107573
111167
114991
112255
104863
95724.6
89356.8
85421.3
82940.3
81476.1
80803.2
100761
101379
102665
104712
107581
111177
114969
112247
104855
95719.4
89341.9
85397.8
82916.6
81454.7
80783.1
100749
101370
102663
104725
107619
111220
114965
112241
104889
95747
89337.2
85360.4
82873.9
81414.7
80745
100733
101359
102667
104780
107766
111350
112615
112299
106463
96158.5
89458.6
85332.7
82815.2
81358.9
80692.2
100713
101345
102677
104824
107823
109825
112547
112182
106502
98422.6
89566.7
85295.3
82745.8
81290.4
80629.4
100695
101342
102719
105007
106935
109984
112529
112008
106393
98619
91773.7
85330.6
82659.4
81222.8
80565.3
100674
101321
102704
104404
106991
110050
111568
111300
106722
99602.6
91931.1
87164.8
82552.2
81151
80508.5
100663
101319
102757
104399
107017
110065
111561
111252
106715
99617.3
91975
87196.6
82632.3
81117.2
80477.1
100645
101287
102671
104367
106983
110034
111518
111236
106673
99596.4
91943
87170
82496.7
81100.6
80458.4
100644
101291
102660
104939
106862
109907
111564
111238
106654
98591.7
91775.3
85245.2
82568.7
81128.1
80468.8
100637
101266
102589
104724
107712
109747
112379
111908
106266
98413.2
89445.8
85160.6
82607.9
81151.1
80489.7
100640
101263
102561
104660
107632
111200
112419
112110
106396
96015.4
89303
85165.3
82641.2
81183.3
80516.1
100643
101259
102542
104589
107468
111049
114768
112078
104714
95567.9
89144.8
85158.7
82669
81209.7
80540.2
100646
101260
102536
104569
107422
110986
114776
112052
104656
95511.2
89122.6
85172.4
82690.2
81229.1
80558.3
100649
101261
102534
104561
107407
110969
114791
112054
104643
95489.6
89116.5
85180.4
82701.6
81239.6
80568
98700
99442.9
101048
103799
108184
115082
120671
126062
112435
91281.3
83821.5
80146
77995.1
76850.4
76362.5
98687.4
99430.9
101038
103796
108194
115092
120666
126034
112381
91204.6
83762
80089.7
77952.4
76817.5
76333.7
98663.5
99408.6
101020
103782
108207
115139
120647
125985
112282
91081.7
83649
79979.3
77872.9
76755.2
76278.8
98630.5
99381.4
101009
103831
108583
112931
120703
126027
112192
95501
83647.4
79788.6
77755.7
76667.5
76201.5
98587
99335
100967
103881
107334
113188
120955
123546
113501
96122.3
86836.7
79571.4
77549.2
76543.8
76106.3
98549.2
99290.8
101002
103438
107416
112206
119137
122406
113432
98379
86917.1
81912.7
77333.6
76402
76005.3
98507.8
99236.5
100970
103456
107525
112217
118177
122329
113873
99296
88614.1
81906.1
77168.2
76276.5
75917
98482.6
99199.6
100953
103497
106856
111674
118152
122254
113799
99311.5
88579
81877.1
79091.2
76202.1
75871.8
98476.2
99203.9
100934
103449
106824
112122
118117
122222
113783
99303.5
88562.3
81822.3
77109.6
76215.5
75854.9
98491.9
99230.7
100930
103339
107424
112142
118057
122240
113814
99259.1
88594.2
81852.5
77224.9
76284.9
75885.9
98502
99243.5
100865
103762
107195
113075
118877
123233
113314
98139.9
86812.4
79404.7
77377.3
76370.1
75933.1
98527.9
99274.3
100890
103688
108410
112779
120515
125804
112007
95494.1
83459.8
79580.6
77539.1
76450.7
75985.2
98547.2
99285.9
100884
103628
108028
114928
120410
125736
112078
90894.5
83416.1
79729.8
77620.2
76503.9
76028.7
98563.2
99301.5
100897
103636
108012
114879
120412
125770
112137
90953.1
83486.7
79809.1
77674.3
76542.2
76060.4
98571.6
99309.1
100902
103633
107994
114861
120432
125796
112156
90957.9
83503.9
79839.7
77699.3
76561.3
76076.7
95606
96327.4
97937.8
100869
105869
112716
129221
159174
116852
83987.9
73681.1
72273.6
71471.9
71196.3
71114.4
95585.3
96305.3
97913.7
100843
105848
112702
129187
159126
116593
83738.4
73517.4
72156.9
71405.9
71151.5
71077.6
95542.1
96256.2
97855
100757
105723
112655
129076
159023
116341
83483.3
73274.4
71988.7
71288.6
71066.3
71008
95482.4
96189.3
97776.2
100525
105059
112975
129046
158830
115983
83386.3
76475.1
71529.3
71113.2
70941.6
70909.1
95394.7
96078.9
97569.5
100546
105051
112049
126034
158603
116801
87146.7
76019.7
73550
70739.8
70770.8
70784
95304.4
95908.7
97988.1
100577
104755
111975
124551
153490
121533
89036.5
78144.1
73306.3
72295.1
70567.5
70653.6
95245.2
95841.9
97956.6
100541
104741
111492
124375
153278
121432
88972.1
79328.9
74748.1
72156.4
70473.5
70560
95197.2
95792.6
97986.6
100531
104701
111414
124259
153135
121402
88965.4
79282.2
74684.6
72115.9
70433.3
70489.5
95208.6
95803.3
97925.3
100529
104692
111376
124202
153055
121451
88984.5
79282.5
74667.3
72057.3
70393.7
70480.6
95241.6
95843.6
97920
100450
104670
111378
124218
153063
121421
88959.1
79289
74689.9
72115.5
70416.1
70502.2
95300.5
95974.7
97451.7
100414
104882
111839
124331
153198
121452
88973
78169.8
73249.7
70521.3
70548.8
70565.6
95369.4
96069.3
97641.4
100360
104753
112645
125774
158294
116011
87354
76125.5
71253.7
70827.9
70669
70640.5
95417.6
96124.5
97706.7
100586
105514
112385
128722
158536
116215
83320.9
72994.9
71675.4
70976.8
70756.8
70700.9
95453.2
96167.2
97761.5
100666
105636
112447
128813
158701
116338
83414.3
73169.5
71805.6
71063.3
70814.7
70744.5
95470.4
96185.4
97781.5
100688
105652
112448
128872
158770
116406
83449.3
73243.7
71879.2
71103.2
70842
70766.6
91419.8
91863.8
92850.1
94653.9
97612
104307
111728
109348
28097.1
54743.9
59173.5
62004.3
63819.5
64971.9
65499.7
91391.2
91832.2
92813.4
94605.4
97569.3
104263
111693
109258
24327.3
53916.7
58863
61859.6
63743.2
64922.1
65460.3
91330.9
91759.2
92729.3
94526.3
97441.6
104144
111580
109154
23600.8
53425.8
58576.3
61712.9
63641.7
64839.6
65391.3
91241.9
91640.8
92584.1
94211.8
98656.1
103701
111294
108983
23649.5
53317.2
59789.5
61640.7
63485.4
64721.7
65299
91118.1
91479.6
92332.4
95279.3
98373.8
104039
111992
108713
23995.4
56431.7
61117.6
62746.1
63471
64622.2
65192.8
90974.2
91314.1
93395.8
95123.4
98775.6
104206
111712
108282
24258.2
56705
61959.3
62757.8
64382.9
64571.7
65089.8
90907.5
91235.5
93336.6
95007.1
98964.4
104071
111503
107972
24685.7
56805.2
62045.9
63599.3
64275.2
64523.5
65022
90861.1
91175.7
93274.2
95588.8
98911
103973
111353
107724
25023.1
56959.5
62106.1
64040.5
64271
64491.9
64953.3
90865.8
91190
93255.3
95554.7
98876.9
103923
111274
107627
25523.6
57193.5
62133.2
64010.4
64188.2
64413.7
64917.2
90903
91234.8
93286.8
94938.3
98862.7
103933
111290
107666
25377.4
57016.5
62025
63481.2
64135.3
64363
64891.2
91015.7
91370.8
92204.1
95053.2
98646.1
104007
111416
107829
24889.4
56695.8
61800.8
62435.5
63142.3
64333.8
64914.5
91123.3
91513.3
92434.1
94037.6
98340.9
103098
110600
108193
24952.2
54974.4
59357.5
61283.3
63160.4
64384.3
64964.7
91200.3
91621.5
92574.3
94336.1
97216
103633
111000
108382
25118
53336.7
58264.4
61333.4
63251.1
64458.1
65014.6
91254.9
91689.6
92656.8
94425.9
97355.6
103948
111237
108583
24892.6
53452.8
58421.6
61433.5
63326.9
64513
65056.7
91280.4
91718.3
92691
94471.3
97396
104028
111335
108704
24448.5
53532.4
58559.1
61506.4
63364.6
64541
65079.1
86405.1
86330.2
86155.5
85884.5
85892.5
89933.3
93685.6
106859
20387.9
34180.3
45701.8
52302.1
56646.9
59191.8
60336
86374.1
86296.2
86118.9
85843.8
85867.7
89888.5
93646.1
106675
4288.58
33105.1
45391.3
52179.3
56575.7
59145.5
60300.6
86312.1
86225.6
86043.5
85805.3
85812.8
89774.8
93536.9
106574
3650.09
32694.6
45234.3
52098.7
56514
59090.2
60247.8
86224.5
86110.7
85928.8
85836.8
88512.8
89699.1
93299.4
106423
2331.48
32650
45276.5
52216.2
56466
59036.1
60189.9
86113.5
85977.2
85849.4
87754.3
88502.7
91467.8
94309.1
106361
2278.68
32214.7
45734.6
52794.8
56514.4
59015.6
60138.2
85991.8
85921.4
87353.4
87630.6
89660.9
92188.9
94128.4
105904
2298.35
32416.9
45973.3
52710.2
57017.7
58996.2
60087.6
85937.1
85874.3
87213.6
87553.5
90226.7
92039.9
93964.2
105701
2287.49
32614.5
46008.5
52989.7
56933.2
58937.8
60025.8
85892.9
85820.5
87125.8
88460.8
90131.1
91926.1
93820
105380
2667.12
33338.1
46091.2
53134.1
56835.5
58879.7
59943.8
85892.5
85824.4
87102.7
88421.9
90085.8
91860.9
93722.6
105099
9768.39
34822.4
46122
53053.8
56752.4
58787.5
59885.5
85910.9
85830
87144.7
87485.8
90089
91868.3
93713.2
105037
17111.2
33779.3
45880.6
52754.4
56708.8
58714.8
59824.7
86005.4
85862.3
85706.9
87495.5
89514.9
91971.2
93809.1
105243
3593.2
32414.9
45602
52277.4
56084
58640
59781.8
86101.6
85980.9
85781.9
85654.1
88339.2
89571.4
93096
105823
3261.54
32168.2
44949.8
51712.8
56014.3
58602.8
59771.1
86179.3
86088.1
85896.9
85645
85620.7
89490.1
93078.5
105970
5215.5
32354.1
44786.5
51620
56035.4
58622.4
59786.5
86237.5
86155.9
85970.2
85680.9
85690
89615.3
93276
106186
2885.03
32494.9
44876.2
51659.6
56073.9
58654
59817.3
86266.2
86188
86005.9
85721.8
85715.9
89704.5
93378.4
106303
13719.5
32569.2
44980.5
51703.1
56100.7
58676.6
59833.9
81255.2
80602.9
79243.3
77061.3
76716.4
75619.9
78142.8
2183.92
25933.6
38499
46377.8
51845.4
55121.4
56646.1
81225.3
80570.9
79210.7
77031.8
76680.9
75577.6
78100.5
2199.79
25125.8
38300.5
46302.5
51788.4
55081.8
56614.3
81171.6
80517.2
79148.2
76976
76664.8
75534.1
78004.5
2217.18
24639.4
38259.9
46242.9
51742.1
55040.6
56569.3
81108.9
80450.3
79070.8
77096.5
76926
75451
77822.7
2231.86
24597.3
37113.1
46372.1
51716.7
55010.6
56522.1
81047.9
80388.9
79151.1
79093
77459
77513.2
78499
2253.12
22271.1
36482.3
45820.7
51731.4
54994.2
56478.2
80986.5
80452.2
80540.8
79301.6
78761.3
78458.5
78470.4
2267.59
22164.6
36112.7
45755.4
51455.1
54906.2
56424.7
80950.2
80425.5
80448.4
79333.5
79475
78438.6
78424.3
2270.98
22147
35979.7
45362.3
51356
54787.8
56329
80905.8
80383.4
80382.2
80123.6
79484.2
78337.2
78284.5
2264.43
22441.1
35727.5
45069.3
51193.9
54680.3
56215.7
80900.9
80369.8
80352.2
80095.3
79416.5
78232
78153.6
2166.57
20925
35293
44852.9
51067.2
54576.4
56140.6
80896.8
80349
80365.3
79206.1
79294.4
78173.7
78096.2
2297.52
20462.1
34963.6
44826.9
50992.7
54520.9
56076.8
80933.5
80266.2
78993.5
78898.4
78496.5
78150
78116.5
2409.55
20253.1
34987.9
45032.6
51144.1
54499.7
56021.5
80982.7
80318.1
78930.1
76927.6
76792.4
75397.8
77333.2
2336.44
21971.9
36344.8
45697
51114.5
54456.1
55999.5
81039.3
80383.6
79013.8
76850.1
76517.1
75346.3
77723.1
2366.71
24168.9
37699.7
45659.7
51152
54471.1
56012.1
81091.3
80437.3
79079
76903.5
76577.1
75432.3
77885.2
2381.7
24536.5
37761.8
45713.1
51200.1
54499.6
56037.1
81119.8
80469
79113.6
76937.5
76570.1
75474.2
77960.8
2411.5
24640.1
37821.3
45736.3
51226.9
54522
56054.8
76879
75693.4
73201.4
68821.4
66514.4
58900.5
54607.1
4022.6
2172.56
23969.1
36365.8
44562.9
50187.1
53564.7
55183.5
76843.7
75653.9
73153.5
68761.9
66451.9
58818
54497.3
2476.62
2197.81
23733.2
36248.5
44510.2
50130.3
53524.8
55147.3
76782.1
75591.2
73065.6
68630.2
66353
58682.4
54387.4
2285.28
2216.75
20154.2
36286.5
44458.2
50072.2
53470
55088.3
76715.2
75528.5
72929.8
68533.6
66250.2
58514.2
54294.2
2561
2247.54
20554.1
33679
44437.4
49997.5
53410.9
55013
76663.5
75462
72828.8
71431.4
66029
61453.2
56241.2
3267.39
2277.74
18455
32320.6
42662.2
49905
53351.5
54926.5
76617.3
75420.8
74673.4
71257.4
67955.3
62887
56593.1
2288.12
2275.68
18356.1
31526.3
42452
48684.3
53196.8
54822.7
76567.5
75358.2
74600.2
71075.4
68730.9
62917.9
56876.9
3228.63
2275.21
17958.7
31127.2
41367.4
48497.6
53015.8
54676.3
76513
75309.5
74519.2
72337.3
68598.6
62688.1
56414.9
2305.81
2342.98
16470.4
30355.9
40597.1
48267
52855.4
54528.9
76510.4
75291.6
74490
72296
68481.1
62464.1
56125.6
3840.73
2232.27
13422.2
29421.2
40227.4
48092.6
52733.4
54431
76518.8
75305.1
74530.1
70930.2
68461.6
62361.6
56009.4
2405.29
2254.1
12972
29075
40523.6
48003.9
52689.1
54374.3
76540.9
75325.8
72658.2
71179
67655.1
62368.1
55947.9
2220.63
2230.89
14064.6
29589.4
41501.8
49127.6
52704.6
54348
76584.4
75391.4
72786.7
68390.5
65990.8
58341.7
54195.7
2812.27
2264.4
17958.7
32615.4
43626
49257.4
52733.1
54372.1
76648.6
75459.7
72939.5
68528.8
66172.3
58577.9
54393.4
2611
2386.88
20458.4
35757
43797.6
49375.8
52793
54420.2
76709.9
75525.3
73038.4
68674.3
66357.2
58750.3
54472.7
2452.64
2392.91
23796.5
35812.9
43922.1
49469.7
52850.2
54468.9
76744.7
75565.7
73089.8
68739.4
66430
58844.5
54524.5
2518.88
2406.69
23568.2
35899
43945.8
49516.4
52884.2
54497.4
74101.9
72511.9
69127.8
63120.8
52707.3
42855.5
18015.6
2251.68
2176.87
26374.6
38342
46212.9
51487.6
54638
56141.3
74049.4
72450.5
69039.4
62999.5
52522.9
42650.6
18057
2267.78
2198.78
25997.9
38197
46123.8
51412.8
54585.3
56093.2
73956.1
72348.7
68899.3
62830.1
52245.2
42199.9
17847.3
2264.18
2221.61
21126.6
37980.8
46021.2
51312.3
54495.6
56007.8
73843.9
72242.7
68706
62625
56566.7
41803.9
17913.2
2277.25
2248.43
21006.6
34067.8
45859.3
51161.9
54371.5
55888.3
73744.5
72138.4
68583.4
65102.2
56531.9
45751
24494.5
2275.94
2272.53
18045
32165.2
43012
50977.4
54240.3
55744.8
73660.9
72026.3
70145.2
65007.9
58755.9
48085.2
26672.3
2275.89
2271.97
17979.6
31013.2
42678.6
48912.7
54035.5
55579.1
73575
71918.4
70094.9
64832.9
59646.6
48399.7
29184
2325.37
2354.52
17459.6
30449
40995.4
48610.9
53802.1
55382.3
73514.9
71855.5
70008.9
66094.5
59377.8
47716
25883.4
2296.47
2294.58
15284.3
29418.8
39843.2
48298.2
53590.3
55200.7
73516.8
71848.1
69975
66024.7
59191.4
47239.7
25214.4
2304.4
2281.87
11816.1
28312
39371.7
48076
53441.3
55074.3
73556.1
71904.9
70014.2
64655.3
59201.2
47097.8
25044.2
2285.25
2224.4
10889.4
28035.9
39915.9
47998.5
53401.3
55020.4
73614.4
71992.5
68405.8
64892.7
58312.4
47092.4
24913.1
2226.29
2209.04
13777.7
28829.5
41541.1
50010.3
53438.6
55026.4
73705.7
72100.9
68562.3
62492.7
56384.1
41800.9
19648.9
2215.94
2284
18027.4
32962.3
44897.3
50260.1
53549.6
55107.1
73815
72213.4
68779.3
62754.3
52277.6
42201.2
18453.4
2274.31
2392.53
21188.6
37474.6
45248.1
50494.2
53686.1
55208.9
73907.3
72317.8
68931
62943.8
52561
42590.7
18433.2
2303.24
2404.5
26090.1
37772.4
45462.4
50655.9
53794.9
55296.6
73959.2
72380
69021.6
63066.3
52733.5
42878.3
18291.6
2296.01
2411.73
25991.6
37935.7
45541.1
50740.3
53853.1
55344.7
73562.3
71930.3
68431.7
62364
51805.4
40110.9
6398.17
2280.07
6887.84
33562.6
44205.1
51021.3
55449.1
58025.2
59247.9
73485.3
71837.8
68288
62120.2
51511.8
39342.5
5273.12
2243.15
5139.77
33103.4
43923.4
50862.1
55340.9
57952.5
59183.8
73351.1
71685.2
68067.3
61811.7
51591.8
37928.5
6752.51
2275.16
2218.34
25460
43691.8
50706.4
55180.8
57827.8
59072.4
73186.9
71518.3
67833.3
61549.9
53485.4
36976.8
8473.29
2289.52
2241.83
25176.7
38635.7
50475.7
54961.5
57651.7
58916
73036.7
71371.2
67707.1
62832.1
53089.4
39437.7
17652.2
2283.27
2262.47
20902
35992.2
46890.5
54754.1
57471.6
58732.2
72911.4
71238.8
68433.2
62588.8
54479.6
40981.8
19381.6
2280.43
2268.25
20801
34442
46442.3
52094.1
57261.7
58528.7
72794.7
71095.1
68319
62358.7
54985.5
41210.4
22959.4
2263.97
2201.71
20278.9
33806.1
44268.2
51692.9
56989.3
58293.1
72729.1
71019.2
68229.6
63186.6
54662.6
40454.3
18789.1
2224.9
2296.12
18103.4
32684.8
42804.4
51307.2
56728.2
58078.5
72737
71028.2
68210.6
63126.4
54496.4
39998.9
17927.1
2290.81
2295.43
15633.4
31543.3
42225.1
51015.9
56539.1
57920.4
72804.7
71120.5
68263.1
62260.3
54588.9
39976.2
18077.3
2284.11
2268.58
15421.4
31271.4
42874.1
50926
56484
57860.1
72899.8
71222.7
67540.2
62569.5
54134.9
40135
17471.6
2247.46
2227.04
17323.3
32023.7
45026.9
53551.3
56508.5
57881.1
73035.7
71368.1
67689.6
61444.2
53186
37316.8
17184.2
2271.25
2345.32
21313
37126.7
49217.3
53853.2
56674.2
57998.7
73191.1
71533.1
67938.4
61745
51625.1
37789.3
9410.55
2297.68
8015.91
25662.3
42976.8
49729.1
54199.5
56875.7
58143
73320.4
71683.8
68163.1
62064.4
51623.2
39369.5
7029.04
2284.83
8107.12
33438.5
43420.9
50051.3
54443.6
57031.5
58264.5
73394.9
71774.9
68305
62306.9
51860.2
40256.8
6427.68
2292.29
4598.08
33516.1
43555.5
50190.9
54574.5
57115.5
58332
75477.4
74283.3
71755.2
67707
59127.2
49983.8
14394.8
2240.85
33538.9
50364.2
54661.3
59041.1
61735.1
63290.4
64051.9
75375.2
74152.5
71540.6
67254.3
58218.6
48458.9
4823.53
2280.41
31551.4
49624.6
54204.5
58806.2
61593.4
63200.7
63977.3
75201
73944.1
71239.1
66655.7
59778.9
45445.2
14487.1
2409.68
16508.5
38684
54166.6
58548.6
61380.1
63054.2
63848
74986
73686
70837.6
66068.8
58303
43420.1
14877.8
2308.83
2238.15
36253.6
48081.5
58252.5
61106.1
62850.8
63671.4
74784.2
73448.7
70550.4
65612.1
56995.3
42916
19717.6
2256.38
2247.38
29062.3
44736.6
54227.2
60915.9
62651.7
63472.7
74614.4
73274.4
70227.2
64927.1
56626.3
42431.6
18783.6
2268.02
2272.2
28773.2
42768.8
53810.1
57914.8
62473.4
63268.3
74465.9
73089.4
69933.2
64501.7
56319
41657.2
17265.8
2291.57
4535.57
28474.4
42156.4
51317
57476.9
62186.6
63011.6
74394.5
73003.8
69807.3
64621.7
55903.3
41185.1
18145.3
2465.71
2296.36
25702.3
40789.8
49579.7
57047.2
61892.5
62772
74410.2
73030.1
69814.9
64599
55846.8
41127.9
18512.1
2208.23
2240.68
20860.8
39046.4
48750.2
56655.1
61657.7
62580.2
74506.7
73162.9
69944.2
64582.5
56188.2
41548.3
18679
2262.54
2170.14
21948.2
38484.3
49334.7
56470.5
61560.3
62500
74636.8
73295.8
70393
65110.5
56662.5
42551.1
19294.5
2293.06
2294.11
24213
39299.9
51786.6
59439.1
61531.5
62504.8
74812
73514.2
70678.2
65956.3
57603.4
43476.4
20557.5
2288.95
2371.08
29537.2
45664
56578.9
59755.9
61716.8
62631.4
75007.3
73754.6
71066.3
66540.5
59695.2
45030
17328.9
2377.41
13883.4
37105.5
52938.5
57261.7
60193.3
61951.7
62795.3
75170
73954.7
71366.3
67137.4
58382.5
48777.7
7565.48
2368.76
32436.1
49348.4
53365.7
57766.6
60522.1
62140.3
62937.3
75266.5
74080.6
71572.8
67575.5
59182.5
49990.7
16440.5
2405.69
35458.9
50538.7
53768
58052.4
60704.1
62246.6
63019.1
79353.4
78949.4
78174.8
78204.2
77296.6
86035.7
124980
112503
89074.5
74947.9
69701.1
69681.2
69604.7
69777.8
69939.6
79233.4
78781.7
77900.7
77575.3
76035.3
84125.4
121814
95305.3
84138.6
73550.3
69014.9
69353.2
69435
69676.7
69859.8
79029.2
78513.4
77518.3
76123.4
75477.6
69183.5
76129.3
63218.6
56047
62506.9
68378.5
68761.1
69166.8
69514.6
69721.6
78771.8
78170.6
76914.1
75130.7
69868.6
62907.9
46012.1
13507.3
27330.8
58939.8
63017.9
68216.1
68830.8
69298.9
69537.7
78527.8
77849.7
76465.5
72604.5
68003
57990.1
35032
2293.06
15168.5
48325
59285.2
64686.9
68577.5
69089
69337
78326.4
77616.4
74896.8
71668.3
65543.4
54380.8
29594.1
2256.88
16999.4
47289.4
57110.6
64334.5
65842.9
68857.9
69143.6
78154.5
77401.9
74462.9
71097.2
64134
52079.5
26959.9
2253.01
20290
49298.8
57081.9
61890.9
65443.2
68583
68892.6
78079
77312.8
74304.7
70309.7
63455.1
50911.1
26113.3
2441.44
7593.26
47892.3
55884.8
59974.2
65005.1
68296.7
68652.1
78098.9
77347.5
74329.7
70324.4
63463.7
50974
26618
2275.45
2312.17
31737.5
52107.2
58763.8
64527
68039.2
68435.6
78212
77502.6
74527.2
71287.2
64137.3
52195.7
27163.1
2307.36
2286.79
32204.1
50158.5
59050.9
64156.8
67910.2
68334.2
78358.7
77672.7
76271
71870.5
65739.8
54777.7
31886.5
2395.19
12150.3
37500.5
51385.6
61562.9
66962.1
67871.8
68299.2
78559.6
77952
76688.7
74896.5
68704.2
61923.4
40385
5088.01
18676.9
47846.7
59293.9
66208.6
67287.3
68047.5
68412.1
78783.5
78259
77245.8
75856.7
75131.8
65990.4
62842.3
51996
54374.4
59069.9
66495.2
67141.8
67786.7
68288.5
68574.7
78968.8
78512.2
77629.5
77300.8
75957.1
84130
122865
100236
84638.7
72473.6
67661.9
68032
68180.5
68492.6
68722.2
79079.6
78670.9
77889
77885.5
77101
85423.6
124285
112466
88956.8
73914.9
68441.2
68488.7
68405.6
68614.3
68809.7
84076.8
84459.2
85180.7
88260.8
92907.7
98417.7
124817
125302
108335
91635.5
83557.4
79905.6
77482.5
76477.1
76079.6
83969.2
84305
84991.4
87922.4
92497.7
98793.9
129276
136334
109695
91382.9
83131.8
79649.2
77339.6
76384.3
76007.3
83775.3
84007.7
84697.8
86327.1
90954
94495
117031
140811
112915
90034
82204.5
78952.6
77088.2
76219.5
75875.7
83519.2
83655.9
84054.4
85235.6
85272.6
91838.9
112696
149916
113663
88095.4
79852
78127.5
76708.7
75992.4
75694.1
83273.5
83324.6
83493.8
82033.2
83015.2
83912.6
91419.1
159228
97080.6
81320.3
77257.5
75977.5
76350.7
75751.4
75488.8
83079.9
82992.6
81389.7
81047.1
79400.1
77869.4
77411.8
79819.8
80169.1
78422.9
75408.6
75419.6
74446.5
75449.6
75281
82912.8
82776.1
81006.7
80379.4
76981.2
73791.3
62688.9
2268.78
79686.7
80928.1
75230.8
73837.3
74107.1
75177.7
75046
82843.3
82701.1
80865.4
78942.3
76205.4
71355.3
55083.9
2282.74
215815
100499
74947.5
72519.1
73660.1
74927.6
74829.2
82855.7
82726.5
80898.4
78990.1
76288
71572.2
55594.8
2307.28
2175.41
72971.6
70715
71243.5
73241
74700.3
74634.1
82953.6
82869.5
81073.5
80564.9
77072.1
73953.1
61981.9
2192.42
2211.25
53622.9
67513.4
71192.8
72928.8
74586.1
74526.5
83073.2
83106.4
83234.9
81235.4
79400.6
77507.5
76301.7
51523.5
50659.3
63573.1
68527.3
72842.9
74845.8
74592.7
74472.9
83257.9
83369.1
83708.8
84755.8
83580.6
87904.7
95975.3
129462
86083.9
76327.5
75339.7
76073.2
75151.2
74731.3
74557.1
83467
83670
84280.1
85782.5
90006.8
92320.4
112666
136730
106667
85783.7
79832
77124.9
75611.7
74941.8
74693.2
83636.7
83947
84584.7
87396.1
91829.9
97674
126734
129631
107323
89174
81328.5
78099.1
75955.4
75130
74819.7
83732.3
84089.4
84766.2
87710.8
92298.8
97434.5
123605
123775
105763
89529.2
81875.1
78451.9
76139.6
75237.7
74894.1
88352
89071
90151.3
92765.4
97284
96535
101353
105603
101567
94902.1
90297.7
86524.2
83675.1
82267.5
81587.8
88308.8
89018.2
90194.5
93071.1
97980.2
98575.2
105746
112955
103695
96016.2
90655.2
86588.8
83656.6
82226.4
81547.6
88207.6
88832.6
90256.7
92768
97366.2
100652
107976
119131
106394
97674.9
90437.7
86368.8
83589.4
82123.7
81463
88039.3
88619.7
89942.1
92746.3
94649.2
102495
115140
128846
116723
99126.7
90518.5
86055.1
83390.3
81956.6
81326.3
87848.2
88367.1
89569.5
90242.1
94256.6
100969
117781
148498
123821
101293
90191.8
85130.3
83134.8
81742.5
81151
87670.8
88003.8
87914.3
89512.3
91751
98348.8
118183
164653
127225
100788
89651.7
84898.1
82096.4
81421.2
80946.6
87536.2
87825.1
87711.4
89064.9
90201.6
96176.5
111829
159439
124260
96073
88715.4
84184.4
81858.9
81189.7
80744.2
87483.3
87768.5
87622.5
88014.3
89780
94896.2
106027
139175
86397
83830.8
87495.2
83487.7
81533.4
80974
80559.8
87477.8
87777.4
87657.3
88080.9
90072.2
95920.7
108331
138162
120449
91677.6
86813.3
82880.3
81195.8
80779.2
80384.4
87536
87875.2
87747.6
89265.5
90568.6
97525.1
116518
182592
129572
94505.9
85992.7
82516.7
80935.8
80658.8
80270.9
87622.8
88118
89265.4
89644.7
91710.7
98007.1
116114
152783
114162
93578.4
85679.2
82812.6
81743.6
80688.6
80212.8
87737.4
88278.3
89505.8
92098.3
93637.7
101335
113535
135881
113384
95068.1
87213.2
84167.8
81934.7
80770.2
80247.4
87849.2
88430.7
89741.6
92064.3
96339.4
100191
109034
121262
105433
95198
88271.3
84613.7
82156.7
80884.6
80315
87922.5
88589.9
89680.8
92360.5
96978.2
96878.4
103039
108707
101220
93418.7
88753.7
84995.9
82264.7
80984.6
80375.1
87953.2
88631
89646
92082.9
96478.9
95489
100130
103928
99070.9
92832.6
88509.4
84977.4
82301.5
81026.3
80407.1
91486.1
92112.1
92938.6
93962.6
96893.7
96114.4
96529.5
100257
96770.8
94408.7
92321.2
89829.5
87765.3
86593.8
85937
91524
92176.3
93127.1
94549.5
97824.5
97740.6
98924.4
100988
98060.3
95756.1
92982.7
90125.9
87881.5