/*--------------------------------*- C++ -*----------------------------------*\
| =========                 |                                                 |
| \\      /  F ield         | OpenFOAM: The Open Source CFD Toolbox           |
|  \\    /   O peration     | Version:  v2012                                 |
|   \\  /    A nd           | Website:  www.openfoam.com                      |
|    \\/     M anipulation  |                                                 |
\*---------------------------------------------------------------------------*/
FoamFile
{
    version     2.0;
    format      ascii;
    class       volScalarField;
    location    "0.025";
    object      p;
}
// * * * * * * * * * * * * * * * * * * * * * * * * * * * * * * * * * * * * * //

dimensions      [1 -1 -2 0 0 0 0];


internalField   nonuniform List<scalar> 
449343
(
100558
100698
100933
101168
101295
101074
100323
98963
97042
94763.4
92418.8
90285.8
88562.4
87365.5
86754.9
100539
100679
100914
101147
101274
101050
100297
98936.3
97015.5
94737.9
92394
90260.9
88536.9
87339.4
86728.5
100519
100659
100894
101126
101252
101022
100265
98901.7
96981.5
94706.6
92365
90231.9
88506.6
87307.8
86696.1
100499
100640
100875
101104
101228
100990
100227
98859.5
96940.3
94669.9
92333.1
90200.6
88473.3
87272.3
86659.5
100479
100620
100855
101084
101201
100954
100185
98813.6
96896.6
94631.1
92300.3
90168.6
88438.6
87234.7
86620.4
100458
100599
100835
101062
101174
100918
100143
98768.6
96853.3
94594.1
92268.3
90137
88403.6
87196.5
86580.4
100435
100577
100812
101038
101145
100885
100104
98726
96813.2
94559.1
92234.8
90104.8
88368.1
87158.2
86540.7
100410
100552
100787
101012
101117
100854
100069
98688.5
96774.2
94523.4
92200
90069.2
88331
87120
86502
100383
100524
100760
100985
101090
100827
100043
98662.5
96745.1
94487.3
92160.6
90029.4
88292.3
87082.4
86465
100354
100495
100730
100955
101064
100803
100022
98640.2
96717.1
94451.2
92121.3
89987.5
88253.3
87046.2
86430.3
100325
100465
100700
100926
101038
100783
100005
98622.4
96693.7
94419.4
92082.7
89947.7
88216.6
87012.8
86398.7
100296
100436
100670
100898
101014
100767
99992.2
98610.4
96677
94394
92048.9
89912.2
88183.7
86982.9
86370.4
100269
100409
100642
100870
100990
100749
99977.6
98597.7
96660.3
94370.8
92019.4
89881.5
88154.9
86956.4
86345.2
100244
100383
100617
100845
100967
100730
99960.9
98581.4
96641.3
94348
91993.4
89855
88129.8
86932.8
86322.5
100221
100361
100594
100822
100946
100710
99942.3
98563
96621.7
94326.5
91970.8
89832.3
88107.7
86911.4
86301.5
100401
100589
100926
101318
101618
101626
101017
99604.7
97440.1
94825.3
92179.4
89840.6
87999.7
86744
86109.7
100381
100570
100907
101299
101598
101603
100991
99577
97412.5
94799.4
92154.2
89814.7
87972.9
86716.5
86081.9
100361
100551
100889
101280
101578
101575
100957
99540.4
97376.8
94768.7
92126.3
89785.1
87940.6
86682.5
86047.2
100341
100532
100871
101262
101556
101541
100913
99488
97329.5
94732.3
92097.2
89754.2
87905.2
86644
86007.4
100321
100513
100854
101244
101534
101499
100862
99432.9
97265.7
94692.9
92070.3
89724.5
87868.8
86603.3
85965
100300
100493
100836
101227
101511
101464
100815
99382.6
97221.6
94657.3
92045.9
89697
87833.3
86562.4
85922
100278
100472
100816
101206
101484
101435
100777
99337.5
97180.7
94628.7
92029.9
89671.2
87797.6
86522.5
85880.2
100252
100447
100791
101181
101457
101405
100737
99250.2
97133.9
94590.9
91998
89636.7
87759.6
86483.3
85840.3
100225
100419
100763
101152
101429
101378
100717
99275.8
97111.1
94554.8
91953.4
89593.8
87720.2
86445.3
85803.2
100196
100388
100731
101120
101403
101350
100694
99252.5
97082
94509.9
91894.3
89543.2
87679.5
86409.3
85769.3
100166
100357
100698
101086
101372
101329
100683
99238.3
97055.9
94473.8
91845.3
89496.9
87641.5
86377.1
85739.5
100137
100327
100666
101054
101343
101320
100678
99234.5
97058.7
94446.4
91803.1
89457.2
87608.6
86348.9
85713.5
100109
100298
100636
101024
101317
101303
100670
99232.8
97046.2
94420.9
91768.5
89424.2
87580.5
86324.3
85690.4
100084
100273
100609
100997
101292
101283
100654
99216.2
97027.3
94395.6
91739.5
89396.9
87556.3
86302.2
85669.2
100062
100250
100586
100974
101269
101263
100636
99198.8
97008
94373.5
91716.3
89374.3
87534.9
86281.7
85649.1
100006
100303
100868
101626
102401
102966
102782
101238
98421.4
94923.4
91536.4
88727.5
86629.9
85248.1
84564
99985.6
100283
100850
101608
102382
102946
102756
101208
98391.1
94895.7
91509
88698.6
86599.7
85217.3
84533.1
99965.2
100264
100833
101594
102368
102925
102717
101168
98347.7
94868.2
91483.5
88666.2
86561.9
85177.4
84492.6
99944.7
100246
100820
101585
102358
102891
102655
101112
98275.7
94836.5
91467.5
88636.7
86520.5
85131.3
84445.3
99924.3
100229
100809
101578
102346
102839
102538
100974
98150.6
94814.8
91455.4
88610.1
86479
85082.5
84394.5
99903.2
100212
100800
101572
102342
102792
102471
100918
98103.9
94796.2
91461.7
88591.4
86439.2
85034.5
84343.8
99880.3
100192
100783
101564
102314
102774
102430
100871
98058.2
94770.5
91535.6
88579.3
86404.6
84989.8
84296.3
99854.9
100168
100760
101543
102292
102756
102414
100841
98005.4
94729.2
91500.4
88544.2
86364.4
84948.1
84253.8
99826.5
100138
100730
101510
102258
102718
102369
100804
97982.8
94691.6
91452.6
88497.7
86323.6
84909.5
84216.6
99796.3
100106
100693
101465
102233
102680
102352
100786
97955.6
94639
91299.3
88427.3
86277.6
84875
84185.6
99765.6
100071
100652
101420
102185
102672
102360
100773
97927.7
94580.9
91213.5
88367.4
86239.8
84846.8
84160.7
99736
100038
100613
101377
102147
102679
102420
100850
97983.1
94526.6
91150.1
88320.1
86208.5
84823.8
84140.4
99708.8
100009
100579
101339
102109
102661
102433
100850
97997
94492.8
91097.5
88281.6
86183
84804
84122.5
99684.1
99982.7
100550
101307
102077
102635
102423
100836
97979.6
94459.3
91061.5
88253.5
86161.6
84785.7
84105.2
99661.9
99959.9
100526
101282
102051
102613
102406
100819
97960.7
94435.6
91037.1
88231.5
86142
84767.3
84087.3
99239.8
99695.1
100603
101943
103585
105219
106220
104436
100177
94835
90182.9
86704.4
84290.9
82772.6
82041.9
99218.3
99674.8
100585
101928
103572
105202
106190
104400
100135
94797.1
90145.5
86666.3
84252.7
82735.3
82005.3
99195.6
99654.8
100571
101923
103571
105197
106151
104366
100099
94782.6
90116.5
86621.4
84201.6
82683.8
81954.4
99172
99635.7
100563
101932
103589
105205
105971
104337
99980.1
94835.4
90132.9
86583.4
84143.9
82622.6
81893.3
99148.6
99618.6
100560
101940
103610
105140
105132
103939
100644
94907.3
90160.6
86558
84083.7
82555.9
81826.6
99125.2
99603.4
100569
101996
103676
104325
104981
103875
100646
96099.4
90240.6
86544.4
84029
82488.9
81760.2
99100
99585.3
100563
102001
103001
104336
104916
103798
100570
96072.3
91490.6
86526.5
83978.7
82432.2
81701.1
99072.5
99561.5
100544
101984
102974
104333
104912
103668
100517
96032.6
91426.6
86484.5
83937.8
82387.3
81652.2
99043.7
99529.7
100509
101946
102942
104294
104863
103708
100484
95988.2
91391.3
86440
83891.3
82346.4
81616.8
99013.5
99492.9
100460
101887
103570
104225
104838
103710
100463
95945.4
90051.7
86363.2
83853.8
82318.5
81592.7
98983.3
99455.4
100401
101787
103456
104982
104945
103735
100455
94649.7
89886.5
86288.9
83824.4
82303.9
81578.8
98955.3
99421.4
100353
101726
103380
105010
105727
104053
99633
94473.9
89769.4
86231.7
83805.3
82293.8
81569.9
98929.9
99391.9
100314
101671
103321
104948
105883
104032
99716.6
94353.9
89677.5
86195
83790.5
82284.6
81561.7
98906.7
99366.2
100282
101630
103274
104907
105868
104004
99673.9
94294.1
89634.7
86172.5
83777.3
82274
81551.6
98885.5
99343.8
100258
101603
103244
104879
105858
103989
99660.7
94270.3
89611.7
86154.6
83762.4
82259.8
81537.5
97902.4
98530.7
99832.7
101903
104805
108462
112403
109966
102876
93892.1
87435.3
83365.7
80780.1
79239
78525.5
97877.6
98507.3
99812.9
101890
104802
108454
112380
109926
102811
93818.4
87371
83307
80726.8
79191.1
78480.4
97848.4
98481.7
99795.3
101887
104820
108480
112392
109893
102790
93764.1
87306.9
83227.6
80649.4
79120.8
78414
97816
98455.7
99788.4
101942
104990
108655
110049
109918
104300
94173.9
87400.1
83167.2
80557.5
79033.9
78331.8
97781.6
98428.3
99786.6
101970
105032
107136
109968
109795
104297
96342.2
87450.2
83090.4
80453.6
78934.2
78239.7
97748.9
98412
99821
102169
104167
107296
109959
109611
104159
96458.9
89603.6
83078.8
80330.4
78835.9
78147.5
97713.3
98378.9
99796.3
101560
104212
107361
108990
108868
104423
97378.3
89710.7
84887.1
80198.2
78737.6
78065.2
97684.1
98356.7
99827.6
101535
104229
107376
108983
108810
104397
97358.1
89713.5
84888.2
80236
78677.3
78011.3
97653
98320
99742
101498
104190
107341
108936
108787
104334
97307.1
89648.9
84832.6
80101.2
78645.6
77975.8
97628.8
98294
99706.7
102055
104063
107213
108972
108776
104294
96290.2
89458.5
82874.9
80138.2
78652.4
77968.8
97604.6
98255.4
99623.7
101826
104903
107035
109780
109443
103909
96104.7
87117.9
82781.4
80166.7
78661.9
77974.9
97584.4
98228.8
99571.4
101736
104790
108468
109790
109624
104020
93708.7
86962.1
82766.7
80183.5
78678.3
77985.7
97565.8
98204.8
99531.4
101644
104603
108274
112151
109567
102343
93243
86788.9
82744.3
80195
78688.3
77993.3
97547.6
98183.4
99502.3
101598
104531
108195
112108
109517
102270
93184.2
86760.9
82744.9
80200.3
78691
77994.2
97529.1
98163.6
99479.4
101569
104495
108155
112094
109498
102255
93162.7
86746
82737.7
80194.9
78684
77985.9
95743.9
96497
98118.1
100885
105266
112185
117917
123759
110888
89969.3
82118.7
78182.2
75838.8
74562.1
74008.4
95712.7
96467.1
98092
100871
105282
112202
117904
123678
110686
89731
81980.8
78076.9
75760.1
74499.6
73952.7
95670.7
96427.3
98056.5
100839
105271
112240
117903
123597
110466
89474.7
81784
77906.1
75637.7
74403.1
73867.2
95620.1
96384.3
98034.5
100887
105675
110119
118015
123662
110296
93766.4
81757.2
77683.4
75481.7
74282.1
73759.3
95560.8
96323.6
97986
100946
104439
110372
118291
121168
111495
94344.2
84894
77430.7
75242.1
74125.9
73634.2
95507.6
96267.6
98006.8
100506
104529
109423
116487
120020
111404
96473.1
84905.8
79739.7
74986
73951
73505.2
95448
96196
97966.1
100515
104649
109443
115550
119958
111788
97309.7
86540.5
79687.2
74790.3
73796.5
73392.8
95404.6
96143.2
97951.1
100558
103990
108920
115555
119901
111691
97261.3
86437.2
79610.2
76720.2
73697.4
73327.2
95380.7
96131
97906.4
100500
103961
109382
115534
119873
111644
97201.8
86377.9
79527.6
74678.9
73699.3
73298.6
95373.2
96137
97887.4
100383
104551
109391
115470
119878
111640
97120.5
86383.2
79537.7
74773.8
73754.7
73316.7
95363.8
96132.5
97807
100776
104308
110325
116288
120857
111121
95984.5
84583.6
77066.2
74923
73833.3
73354.2
95363.7
96135.5
97802.5
100683
105502
109995
117897
123422
109812
93319.9
81222.9
77220.5
75070.2
73900
73392.3
95359.8
96125.8
97776.6
100595
105092
112113
117750
123301
109855
88752
81158.7
77352.3
75133.5
73936.7
73419.7
95352
96116.3
97762.7
100575
105041
112025
117700
123296
109910
88835
81229.8
77421.4
75172.4
73958.3
73434.1
95338.8
96102.3
97746.2
100551
104999
111977
117682
123299
109960
88889.6
81253
77443
75183.2
73961.1
73433.1
92542.1
93274.8
94899.7
97836.9
102780
109531
125852
155971
117248
83632.6
72246.5
70373.7
69260.2
68786.5
68607.8
92501.9
93234.4
94860.4
97800.8
102764
109528
125862
155950
116155
82990.9
71954.7
70196.2
69151.5
68708.7
68542.4
92439.4
93166.8
94785
97702.7
102656
109543
125859
155983
115376
82472
71568.4
69932.1
68983.7
68585.4
68440.7
92358
93080.4
94687.4
97462.9
102031
109946
125941
155955
115038
82339
74884.5
69458.1
68761.4
68427.6
68312.3
92251.3
92949.1
94475.5
97519
102053
109069
123053
155917
115944
86011.1
74367.7
71503.6
68360.9
68222.2
68159.2
92145.2
92772.9
94902
97536.2
101771
109029
121688
150947
120252
87711
76409.2
71177.1
69941.4
67978.7
68003.3
92059.3
92675.9
94855.2
97494.2
101766
108601
121606
150864
120042
87500.2
77494
72612.5
69776.3
67857.3
67891.5
91992.1
92610.5
94876
97485.1
101741
108566
121573
150840
119931
87362
77360.8
72481.6
69699.6
67802
67809
91980.5
92600.2
94795.4
97474
101737
108556
121575
150847
119862
87260.6
77282.2
72419
69615.9
67759.6
67795.1
91987.8
92619.9
94772.7
97389.5
101714
108562
121614
150886
119771
87164.9
77235.5
72424.4
69656.5
67776.5
67810.9
92021.8
92727
94270.3
97329.1
101912
109009
121706
150983
119739
87120.9
76095.6
70967.6
68016.5
67917.8
67871.4
92061.4
92793.9
94426.1
97243.7
101755
109781
123103
156003
114267
85459.9
74043.9
68926.3
68314.1
68026.1
67933.3
92082.3
92822.1
94468.9
97432.8
102465
109466
125962
156107
114328
81407.7
70839.7
69308.5
68437
68094.7
67976.1
92091.5
92837.5
94493.8
97485.1
102548
109465
125967
156147
114501
81556.1
71027.5
69439
68507.3
68134.2
68000.7
92085.8
92832.8
94490.9
97483.1
102536
109422
125958
156117
114802
81766.7
71143.6
69506.9
68535.4
68144.9
68004.9
88229.8
88693.7
89708.4
91533.1
94466.9
100975
107965
104224
42852.2
55653.7
57965.8
60078.5
61442.7
62321.3
62719.2
88181
88643.1
89656.1
91476.5
94420.8
100942
107986
104366
29845.7
53969.9
57440
59827.2
61312
62235.7
62650.9
88098.6
88548.8
89554
91376.2
94299.7
100875
108001
104697
27447.7
53087.7
57028
59616.5
61153.2
62114.4
62551.9
87986.1
88409.2
89388.6
91064.4
95534.6
100492
107847
104855
27071.5
53012.2
58363.5
59495.3
60999.8
61975.8
62438.3
87835
88223
89120.8
92129.9
95250.2
100898
108723
104876
30758.2
56321.6
59727.3
60646.1
60854.4
61835.4
62311.9
87666.7
88030.3
90183.8
91963.2
95669.2
101133
108578
104765
26759
56208.3
60478.9
60578.3
61887.7
61756.3
62194.6
87568
87921.7
90104.9
91838.7
95876.7
101057
108499
104753
26484.8
55983.7
60430.7
61424.6
61759.5
61706
62127.6
87496.3
87840.8
90025.5
92423.5
95846
101015
108472
104741
25538.7
55791.7
60337.6
61858.1
61729.9
61678.1
62065.6
87471.5
87828.7
89990.2
92382.8
95821.3
101006
108488
104827
25445.7
55633.2
60233.2
61784.9
61643.7
61611.9
62035.3
87474.1
87844.2
90006.6
91752
95796.3
101028
108549
104963
24464.1
55432.1
60109.5
61214.6
61611.7
61566.2
62011.1
87554.3
87947.4
88860.9
91844.4
95561.7
101079
108657
105113
23894.2
55236.6
59921.8
60180.4
60527.8
61538.8
62032
87627.3
88058.5
89063
90779.8
95224.5
100127
107749
105360
23810.8
53453.6
57438.3
58947
60532.6
61576
62066
87669
88132.5
89167.1
91050.1
94051.8
100591
108049
105383
23558.3
51707.3
56218.3
58945.8
60592.7
61623.2
62092.1
87694.4
88170.3
89216
91092
94140.4
100842
108184
105389
23698.4
51959.5
56394.9
59006.2
60637.6
61651.6
62109.1
87695
88173.6
89225.5
91115.5
94155.8
100874
108202
105352
25649.5
52475.9
56588.8
59097.3
60668.9
61662.9
62111.8
83062.4
83029.3
82929.9
82757.1
82866.5
86846.4
90360.5
103183
21516.3
33451.1
44120.3
50084.2
53890.8
56112.8
57104.2
83010.1
82974.5
82873.7
82699.8
82824.1
86791.2
90326.5
102989
2411.05
32118.9
43574.1
49818
53760
56031.7
57042.8
82922.9
82879
82779.1
82652.6
82750.5
86680.3
90251.9
102971
5190.9
31861.5
43381.7
49681.4
53646.9
55946
56969.9
82807.3
82736.9
82636.9
82628.9
85382.5
86606.2
90065.7
102919
3353.07
31845.4
43649.4
49743.2
53598.7
55883.5
56909
82661.7
82568
82515.7
84512.9
85348.9
88352.5
91120.9
102968
2300.98
31630.2
44177.6
50453.5
53612.1
55858.4
56863.2
82500.5
82468.9
83994.5
84363.1
86480.2
89073.4
91006.5
102603
5215.69
31762.8
44394.2
50369.7
54249.4
55866.3
56832.6
82408.5
82389
83830.8
84270.5
87039.9
88961.1
90913.5
102521
4360.97
31739.5
44355.3
50681.6
54184.9
55839.6
56805.3
82327.6
82302.1
83721.3
85165.7
86966
88896.7
90866.3
102435
4787.31
31651.8
44284.4
50858
54107.7
55813.7
56759.1
82284.8
82266.7
83673.5
85115.6
86931.9
88877.3
90866.9
102500
3331.51
31479.6
44192.6
50794
54057.6
55750.6
56723.6
82257.8
82235.7
83687.8
84154.1
86925.5
88901.1
90911.8
102596
2306.4
31337.6
44091.8
50504.7
54050.6
55692.9
56672.2
82305.7
82210.3
82181.7
84138.1
86332.2
88977.8
90990
102718
2340.47
31236.9
43968.1
50027.6
53315.7
55599
56615.3
82354.9
82286.2
82191.9
82241.7
85097.9
86521.7
90191.9
103107
2321.99
31138.1
43214.9
49272.5
53177.4
55526.4
56574.3
82392.2
82353.7
82267.2
82171.5
82346.5
86391.1
90088.7
103046
2560.87
31193.3
42750.1
49081.9
53136.3
55498.3
56552.3
82415.1
82386.9
82308.8
82179.9
82372.5
86472.6
90216.2
103117
4173.17
31254.2
42753.5
49052.6
53125.1
55486.2
56541.9
82416.8
82392.6
82318.7
82195.7
82374.9
86530.6
90269.4
103122
7224.67
31421.9
42958
49129.4
53144.1
55488.9
56535.4
77709
77131
75919
73957.1
73780.9
72947.6
75523.2
2573.83
23848.8
36164.3
43414.5
48381.3
51354.6
52728.2
77656.2
77075.5
75860.4
73896.2
73716.6
72871.6
75447.9
2285.54
23521.2
35843.7
43249.5
48286.8
51291.8
52680.8
77574.6
76992.2
75767.7
73818.2
73675.5
72774.8
75296
2297.69
23512.7
35854.7
43191.8
48225.3
51245.4
52638.1
77477.7
76888
75655.1
73855.2
73858.3
72612.1
75048
2307.15
23408.5
35000.9
43312.5
48219.3
51234.5
52619.7
77373.1
76778.8
75664.2
75756.2
74334.9
74532.5
75631.6
7073.1
21211.6
34512
43022
48242.6
51258.1
52627.5
77257.1
76781.2
77019
75920
75528.4
75393.8
75535.3
2374.65
21171.4
34229.9
42981
48255.9
51252.4
52647.8
77170.3
76709.4
76875
75906
76202.2
75351.2
75444.8
2286.36
21192.3
34200.8
42782.6
48235.1
51219.6
52637.9
77073.8
76614.6
76760
76669.5
76227.3
75294.2
75376.2
2303.54
21117
34140.4
42697.3
48161.4
51193.8
52602.2
77008.4
76545.4
76685.7
76614.4
76170.7
75256.1
75357.8
2298.16
21037.3
34077.2
42642.6
48122.9
51144
52574.5
76947.8
76477
76670.7
75700.6
76029.5
75228.3
75379.9
2302.49
21036.8
34032.1
42635
48118.6
51113.2
52527.9
76916.8
76311.2
75211.6
75320.9
75198.2
75164.5
75386.4
2294.87
21043.1
33994.3
42731.5
48023.5
51066.6
52437.8
76905.5
76308
75049.5
73295.1
73407.7
72330.5
74508.3
2296.86
21853.8
34736.2
42950.9
47889.6
50962.2
52361.2
76910.9
76321.8
75089.8
73148.6
73059.3
72241.5
74824.6
2296.73
23051
35394.6
42732.5
47825.1
50892.1
52310
76921.4
76335.6
75120
73184.2
73074.3
72314.7
74983.5
2296.15
23166.5
35224.8
42644.9
47773.2
50846.9
52275.2
76920.3
76338.6
75127.6
73194.2
73050.3
72362.8
75083.5
2286.92
22807
35214.4
42620.9
47758.4
50832.6
52256.7
73036
71960.6
69697.5
65691.1
63709.2
56746.4
53044.2
4197.65
2294.96
22081.2
33173.1
40587.7
45735.8
48845.7
50327.4
72977.8
71897.4
69623.5
65596.2
63612
56605
52850.8
3017.2
2289.93
21173.6
33011.4
40539.8
45684.5
48806.2
50294.9
72888.4
71804.7
69499
65420
63464.4
56362
52555.6
2845.28
2293.66
18338.3
33165.2
40534.6
45655.2
48782.8
50271.3
72785.4
71700
69323.6
65264
63287.3
56067.1
52230.2
2375.23
2309.1
19274.9
30999.5
40524.2
45634.9
48785.1
50270
72685.6
71578.5
69147.9
67995.2
62932.5
58723.6
53965
2673.99
2367.54
17021
29770.7
39145.7
45608.7
48824.3
50298.7
72574.3
71475.3
70915.7
67734.3
64658.6
59881.4
54001.6
2504.48
2273.41
16807.5
29106.3
39031.5
44822
48849.3
50348.4
72459
71342.5
70766.5
67468.7
65344.9
59759.8
53869.3
2340.13
2300.28
16874.5
29023.3
38300.2
44806.6
48843.3
50363.7
72335.9
71218.4
70612
68675
65231.1
59658.8
53771.8
2363.15
2380.15
16777.7
28924.6
37940.4
44762.6
48825.3
50346.9
72250.4
71122
70516.5
68591
65137.5
59605.4
53788
2301.84
2314.22
16682.1
28842.2
37883.2
44734.8
48780
50321.8
72176.6
71057.3
70492
67195.5
65082.5
59588.1
53948.9
667.13
2362.99
16749.2
28850.3
38166
44723
48750.9
50280.3
72110.2
70974.8
68484.8
67317.9
64214.2
59524.8
53840.3
2991.72
2284.62
16980.4
28957.1
38858.7
45438.8
48716.2
50189.1
72070.8
70958.2
68515
64415
62405.7
55410.2
51795.1
2594.09
2287.61
17903.3
30671.9
40255.3
45423.5
48626
50123.6
72069.3
70958.3
68605.4
64487.3
62494.5
55526
51815.9
2986.09
2296.75
18869
32727.3
40190.8
45383.1
48562.3
50076.8
72081.1
70975.9
68659.2
64607.6
62639.5
55725.6
52037.3
2836.32
2298.26
21505.9
32425.5
40089.8
45313.9
48507
50035
72082.7
70983.8
68681.4
64652.7
62700.4
55875.2
52262
2669.77
2287.6
21376.5
32269.8
39942.6
45262.9
48472.5
50005.9
69817.5
68362.6
65267.7
59763
50072.2
41141
17695.8
2344.36
2301.96
24136
33370.5
40920.7
45807.5
48722.9
50121.6
69745.8
68283.1
65165.7
59625.1
49881.3
40900
17462.9
2264.51
2303.02
23484.8
33843.1
40965.4
45784.1
48698.8
50098.2
69631.1
68161.6
65006.6
59430
49601.4
40365.5
17103.9
2258.92
2301.12
19152.6
33777.9
40935.9
45743.8
48674.5
50077.7
69490.4
68025.8
64793.8
59206.3
53706.7
39872.2
17035.8
2258.29
2306.62
19164.1
30475.2
40761.9
45668
48660.2
50080.8
69349.2
67875.8
64618.5
61558.2
53526
43404.7
23334
2262.15
2273.81
15865.7
28688.6
38438.8
45612.7
48718.2
50137.5
69203.5
67707.8
66130
61331.8
55417
45006.9
24060.2
2311.73
2283.76
15283.7
27629.2
38253.9
44131.7
48819.2
50237.3
69044.9
67515.2
65980.8
61035.7
56121
44801.5
23874.4
2288.04
2329.62
15378.3
27415.1
37075.1
44135.4
48885.3
50309
68891.8
67350.4
65794.3
62195.5
55870.7
44597.8
23772.7
2277.28
2315.15
15099
27159
36455.9
44125.6
48903.3
50329.9
68787.3
67226.2
65658.8
62042.4
55701.9
44483.2
23774.5
2296.08
2295.76
14173.8
26897.5
36361
44100.4
48848
50296.7
68711.8
67159
65595.6
60553.7
55632.4
44472.7
24249.6
2235.72
2309.05
14305
26969.6
36887.9
44073.2
48779.2
50238.1
68641.6
67111.5
63690
60662.7
54619.4
44365.1
23940.2
2300.63
2331.36
15562.2
27390.9
38112
45524
48710.7
50140.2
68623
67092.2
63706.8
57913.1
52487.4
38836.5
18079.7
2274.32
2290.75
17149.4
30131
40560.4
45569.1
48640
50087.7
68650.7
67117.4
63837.1
58088
48162.1
39047.9
16405.6
2279.36
2301.72
18937.5
33322.6
40653.7
45596.6
48615.2
50057.2
68685
67163.4
63932.9
58251.3
48411.4
39519.6
16563.9
2271.78
2303.38
22774
33103.1
40568.4
45541.1
48570.3
50021.1
68699.6
67188.3
63987.2
58350.8
48558.4
39811.2
16844.5
2277.1
2293.83
22805.6
32366
40322.4
45463.2
48521.6
49989.1
68650
67149.2
63922.5
58455.8
48642.5
38264.6
7096.06
2315.48
2299.89
27328.5
36973.5
44174.6
48277.6
50735.4
51904.8
68560.5
67050
63791.8
58240.1
48398.5
37826.4
5166.81
2239.21
7494.32
29045.3
37919.3
44224
48269.8
50710.1
51877.4
68416.4
66895.6
63599.9
57937.6
48683.5
36120.7
5974.47
2281.32
2304.48
22701.6
37813.3
44045.2
48157.5
50659.1
51849.4
68237.7
66726.5
63395.5
57765.4
50601.3
35218.6
8157.75
2260.81
2305.48
22549.2
33539.8
43731.5
48026.9
50632.4
51858
68057.1
66550.4
63258
59104
50251.5
37713.5
17224.7
2285.27
2289.9
17979.8
31022.1
40730.5
48041.8
50737.5
51962.5
67876.3
66366.6
64029.6
58720.1
51300.5
38539.7
17317.9
2307.23
2288.66
16796.6
29436.8
40553.9
46133.4
51013.6
52179.1
67677.9
66124.8
63805.7
58367.6
51536.4
38030.2
16716.7
2285.26
2295.74
16381.3
28986.2
39077.2
46317.2
51247.5
52369.6
67501.4
65921.7
63560.1
58979.4
51095.3
37523.2
16390.7
2260.27
2288
15383.4
28491.6
38267.5
46447.6
51337.1
52446.3
67377
65772.6
63377.5
58736.5
50761.5
37164.1
16170.9
2292.37
2288.14
12990.8
27967.8
38129.2
46382.3
51232.7
52380.8
67300.7
65689.2
63249.2
57577.2
50583.2
36998.6
16199.6
2268.54
2345.48
13608.4
28141
38836.7
46216.4
51057
52261.3
67230.9
65614.4
62011.9
57641.1
49790.5
36901.8
16376
2300.17
2312.66
16281.3
28992.1
40464.7
48098.4
50886.6
52116.6
67239.4
65601.6
61978.4
55864.7
48383.4
33501.1
15565.8
2293.15
2292.42
19277.7
32939.7
43688.5
48116.3
50806.6
52062
67303.6
65665.9
62121.9
56071.6
46354.3
33400.1
6207.77
2261.08
2366.95
21919.6
37280
43883.1
48203.8
50817.2
52052.2
67370.7
65754
62276.1
56423.1
46189.8
36028
3666.67
2253.44
8803.67
27663.2
37166.5
43907.4
48200.3
50796.4
52033
67405.7
65803.9
62368.6
56615.4
46394.6
36253.5
3942.1
2256.2
2297.61
25486.4
35881.1
43640.6
48084.1
50743.5
52005.9
69758.9
68654.2
66302.7
62647.1
55103.1
45607.6
19341.9
2323.7
17185
39565.6
45085.9
50267.6
52841.3
54488.3
55273.7
69652.4
68531
66134.4
62331.9
54487.5
45146.5
12467.5
2319.84
28619.6
42081.8
45978.7
50244.5
52815.1
54442.1
55231.2
69480.8
68337.1
65901.5
61864.4
56054.2
42853.8
14839
4118.94
18136.1
33251.9
45676.8
49778
52592.8
54343.5
55177.7
69269.1
68105.8
65598.4
61541.4
54877.4
41984.7
15556.2
2284.86
9138.65
31697.2
40410.5
49197.1
52365.1
54297.7
55188
69053.1
67866.4
65363.2
61223.6
54187
42390.8
21292.9
2311.14
6086.05
24667.6
36913.6
45781.7
52511.6
54516.5
55378.7
68842.6
67649.5
65102.4
60661.2
53770.5
42074.9
22990.1
3926.02
2301.78
22115.5
34378.9
45872.2
50802.9
55142.2
55802.5
68619.4
67365.4
64722.5
60119.3
53178.7
40757
18975.7
2312.21
2281.37
21935.3
33757.8
44609.8
51562.1
55703.2
56204.3
68432.4
67134.2
64415.5
59932.9
52372.2
39480.6
17825.1
2280.18
2298.64
18399.5
33602.3
44069.3
52152.9
55912.2
56360.6
68301.6
66977.7
64197.7
59581.7
51752.2
38503.8
16948.5
2289.53
2178.81
15921.5
33196.9
43931.3
51859.8
55669
56220.7
68234.4
66906.4
64064.3
58995.8
51433.8
37930.9
16289.1
2299.36
2118.68
16171
33311.9
44416.2
51129
55267.9
55984.6
68180.4
66823.9
63859.5
59027.1
51084
37870.5
16412.8
2241.25
2310.17
21373.3
34464.4
45970.3
52891.5
54887.9
55743.7
68221.6
66871.2
63910.4
59001
51055.8
37062.5
16241.5
2288.95
14403.4
25528.8
39518.9
49598.5
52803.7
54780.6
55676.8
68324
67009.7
64180.6
59433.9
52374.4
38246.3
11252.8
2453.24
12986.5
30631.2
45083.7
49882.9
52961.7
54822.8
55693.6
68426.8
67152.2
64413
60053.2
51308
41286.5
4346.61
2313.18
22979.1
39364.1
45208.5
50129.8
53036.9
54843.6
55705.9
68483.4
67233.7
64554.6
60358.6
51837.5
41395.9
7328.04
2314.41
2779.44
35263.3
43452.1
49820
52889.6
54801
55690.9
72682.5
72279.1
71489.4
71312.3
70991.7
76864.3
109598
107690
79873.5
64404.8
58573.8
58969.3
58984.3
59446.1
59706
72563.2
72129
71287.3
70934.2
70249.9
76878.6
112364
95686.4
75572.9
62628.5
58265.4
58594.8
58846.3
59342.5
59631.3
72366
71878.7
70972.3
69805.7
69867.5
64441.3
72821.7
54154.8
54981.8
53419.1
56508.4
57523.5
58445.3
59158.6
59525.5
72121.2
71567.7
70458.8
69047.5
65276.3
61220.6
56211.4
25770.6
36286.1
48651
50918.5
56477.2
58056.9
59055.7
59504.5
71878.9
71258.1
70038.1
67078.7
64175.2
57889.6
42397.1
5606.49
23467.3
37646.7
45827.9
53001.1
58399.5
59386.7
59759.1
71663.5
71032.3
68795.4
66292.1
61997.9
55775.8
42279.4
2202.93
21246.4
25896.7
40822
54173.3
57702.6
60314.4
60394.3
71448.2
70765
68331.6
65605.6
60468.7
53707.3
40546.3
2155.46
23374.6
2358.28
40107.5
55065.4
60210.3
61318.5
61048.2
71282.9
70563.5
68020.5
64594
59252.9
50961.1
34481.5
2306.39
29544.9
19620.8
44957.9
56462.3
61800.1
61680.8
61308.8
71174
70432
67819.1
64209.7
58397.4
48842.9
30255.8
2288.47
2419.48
23825
45159.6
55769.8
60630.5
61189.8
61068.5
71135.5
70389.9
67701.7
64434.3
58071.1
47673.7
26474.5
2209.44
2248.69
25181.7
43642.6
54046.3
58481.2
60540.9
60725.8
71108.7
70310.6
68632.3
64447.6
58341.8
47643.3
25802.6
2282.54
2653.32
34093.5
44303.1
54240.1
59198.8
60073.9
60425.9
71189
70433
68804.7
66361.7
59774.4
50702.2
27990.9
2268.04
2424.17
38061.4
50377.5
57756.8
59061.1
59995.1
60391.6
71334
70655.4
69276.1
67177.7
65272.4
54029.6
40414.5
17477.6
37832.5
48083.5
56632.3
58230.3
59339.9
60099.2
60467.1
71472.1
70867.4
69621.5
68501.7
66344.2
70671.5
99757.2
70738.3
66023.7
60210.2
57877.3
58932
59563.3
60204.5
60539
71546.5
70983.2
69812.9
68934.4
67207.7
71550.3
97879.6
83164.2
73188.1
62558.2
57545.1
58998.6
59503.8
60211.1
60552.6
76428
76690.6
77222.3
79560.2
84060.5
88516.9
111228
111860
92882.5
78203.8
70399.2
67305.6
65307.4
64745.9
64515.1
76317
76544.4
77060.3
79382.2
83810.5
89304.2
115957
120445
92836.5
76822.8
69660.2
66764.3
65058.6
64569.9
64394.7
76118.7
76247.6
76737.4
78019.4
82270.3
86051.8
106356
130586
95062.3
74302.1
66708.7
65213.4
64479.2
64264.1
64206.3
75862.8
75888.4
76060.3
76882.7
77498.3
84260.1
104907
139155
93167
67827.3
62248
63777.4
63924.4
64030.5
64088.2
75615.3
75534.1
75420.4
74299.2
75260.1
78048.6
92366.2
161804
75681.3
55262.7
56024.6
60860.5
64241.8
64302.9
64291.1
75410.1
75224.5
73782.5
73263.4
72320.6
73482.9
86289.3
100895
9257.68
27245
49054.1
64671.7
65046.5
65371
65002.8
75227.9
74976.9
73350.1
72457.7
70127.8
70037.7
78013.9
60642.2
2306.25
2289.31
50485.6
74749.1
70866.1
67087
66011.9
75114.9
74839.8
73118.6
71292.5
68910.4
66970.9
68621.9
61786.6
2241.77
6249.43
75265.6
86021.9
74594.5
67648.2
66387
75068.2
74796.5
73052.4
71120
68470.5
66012.8
64588.7
2244.42
2459.35
37056.6
69112.1
78859.7
70506.6
66598.2
65920
75096.1
74863.3
73079.6
71995.6
68769.8
65938.7
62618.6
34458.4
2502.4
40524.2
58107.9
66402.9
66201.7
65733.8
65542.5
75132
74954.7
74612.5
72347
69783.5
66342
60584.7
32829.5
28123.4
49833.8
57685.6
63545.1
65604.9
65476.9
65372.3
75252.6
75154
75005.8
75221.2
72576.3
73799.5
71856.6
67198
53053
62643.1
64276.5
66328.5
65740.2
65587.4
65487.7
75421.3
75418.9
75574.7
76211
79078.8
79652.1
97588.5
125166
92951.5
73605.8
69066
67165.7
66198.7
65820.8
65679.8
75571.1
75686.3
75949.3
77794
81464.7
86499.3
113684
120343
92900.3
77763.7
70932
68167.1
66573.4
66046.1
65839.5
75641.9
75803.7
76107.1
78064.8
81920
86389.5
110529
112321
93961.4
79361.4
71335.8
68567.5
66666.4
66132.1
65900
79872.2
80369.9
81157.5
82810.4
86646.6
85377.8
88185.3
89839.5
83540.5
79361.6
75298.7
72429.2
70290.6
69427.7
68978.9
79810.5
80293.9
81119.4
83013.8
86872.6
86453.8
89754.4
92973.6
84794.9
79269.5
74943.3
72001
70026.5
69213.6
68820.9
79684.1
80075.7
81013
82593.2
85802
87868.9
91908.6
99671
85407.7
78196
72642.2
70614.9
69373.2
68797.1
68541.5
79500.4
79813.8
80535.1
82132.8
83324.7
87950.4
94989.3
104799
89146.3
74227
69548.3
68933.6
68531.5
68342.5
68252.3
79318.6
79526.9
80001.5
80214.4
82024.7
85343.3
93563.9
105909
80769.7
66670.5
63580.5
66168.8
68184.8
68194.6
68182.7
79179.1
79268.7
78895
79273.9
79821.1
81717.9
85317.2
80280.8
46655.1
46349.6
54203.1
67905.7
68704
68877.6
68547.6
79104.3
79152.4
78625.6
78754.1
78319
78711.7
77495.7
59122.6
4189.67
2297.41
18253.1
93183.6
75524.3
70499.1
69426
79095
79149.5
78603.1
78147.3
77444.2
77021.8
77311.5
42674
2292.67
2250.87
2393.87
131052
78297.5
70970.6
69823.6
79123.8
79202.5
78709.6
78232.6
77631.9
78011.8
133490
19315
2314.55
2403.97
33577.4
94759.4
73163.5
70052.3
69561.2
79192.5
79314.4
78869.2
79333.8
78892.2
81617.5
99563.8
112417
74181.3
55510.9
63307.8
70021.3
69853.1
69811.1
69591.7
79263.9
79525.2
80122.6
79924.3
80612
83623.3
94234.9
119904
95574.9
77498.2
69630.2
70030.8
70605.8
70125.4
69843.1
79377.4
79719.3
80510
82253.9
82959.5
88580.8
98245.2
125949
112225
83891.3
75335.4
73152.6
71412.2
70635.7
70244.8
79492.9
79891
80846.5
82529.1
86305.3
89012.7
97623
112225
96744.7
84709.1
77599.4
74129.2
72090.7
71051
70593.4
79580.3
80078.8
80976.1
83031.7
87358.8
88171.4
94143.7
100290
89145.2
83574.9
78401.5
74803.6
72468.3
71355.5
70830.8
79600.8
80115.2
80960.4
82779.5
86927.2
86872.3
91511.2
93861.1
86463.1
82913.9
78113.3
74941.6
72565.9
71471.1
70925.8
82456.7
82815.7
83292.5