/*--------------------------------*- C++ -*----------------------------------*\
| =========                 |                                                 |
| \\      /  F ield         | OpenFOAM: The Open Source CFD Toolbox           |
|  \\    /   O peration     | Version:  v2012                                 |
|   \\  /    A nd           | Website:  www.openfoam.com                      |
|    \\/     M anipulation  |                                                 |
\*---------------------------------------------------------------------------*/
FoamFile
{
    version     2.0;
    format      ascii;
    class       volScalarField;
    location    "0.025";
    object      p_rgh;
}
// * * * * * * * * * * * * * * * * * * * * * * * * * * * * * * * * * * * * * //

dimensions      [1 -1 -2 0 0 0 0];


internalField   nonuniform List<scalar> 
449343
(
100421
100561
100796
101030
101157
100937
100185
98825.7
96904.6
94626.1
92281.4
90148.4
88425.1
87228.2
86617.6
100421
100561
100796
101030
101156
100933
100180
98818.6
96897.7
94620.2
92276.3
90143.1
88419.2
87221.7
86610.7
100421
100561
100796
101028
101154
100924
100167
98803.6
96883.4
94608.5
92266.9
90133.8
88408.5
87209.7
86598
100421
100561
100796
101026
101150
100911
100149
98781
96861.8
94591.4
92254.6
90122.1
88394.8
87193.8
86581
100420
100561
100796
101025
101142
100895
100126
98754.8
96837.8
94572.2
92241.5
90109.7
88379.7
87175.9
86561.5
100419
100560
100796
101023
101134
100879
100103
98729.4
96814.1
94554.9
92229.1
90097.8
88364.3
87157.3
86541.2
100415
100557
100793
101019
101126
100865
100084
98706.4
96793.5
94539.4
92215.2
90085.1
88348.5
87138.6
86521.1
100410
100552
100787
101012
101117
100854
100069
98688.5
96774.2
94523.4
92200
90069.2
88331
87120
86502
100402
100544
100779
101004
101110
100847
100063
98682.1
96764.7
94506.9
92180.2
90049
88311.9
87102
86484.6
100393
100534
100769
100995
101103
100843
100061
98679.5
96756.4
94490.5
92160.5
90026.8
88292.6
87085.5
86469.5
100384
100524
100759
100985
101097
100842
100064
98681.2
96752.5
94478.2
92141.5
90006.5
88275.4
87071.7
86457.6
100374
100515
100749
100976
101092
100845
100071
98688.9
96755.5
94472.5
92127.4
89990.7
88262.1
87061.4
86448.9
100367
100507
100740
100969
101088
100847
100076
98695.8
96758.4
94468.9
92117.5
89979.6
88253
87054.5
86443.3
100362
100501
100734
100963
101085
100848
100079
98699.1
96759.1
94465.7
92111.1
89972.8
88247.5
87050.5
86440.2
100359
100498
100731
100960
101084
100847
100080
98700.3
96759
94463.9
92108.1
89969.7
88245
87048.7
86438.8
100264
100452
100789
101181
101481
101488
100879
99467.3
97302.7
94687.9
92042.1
89703.2
87862.4
86606.6
85972.3
100264
100452
100789
101181
101480
101485
100873
99459.3
97294.8
94681.6
92036.5
89697
87855.2
86598.8
85964.2
100263
100453
100791
101182
101480
101477
100859
99442.3
97278.7
94670.6
92028.2
89687
87842.5
86584.4
85949.1
100263
100453
100793
101184
101477
101462
100834
99409.6
97251
94653.8
92018.8
89675.7
87826.7
86565.5
85929
100263
100454
100795
101185
101475
101440
100804
99374
97206.9
94634.1
92011.5
89665.6
87810
86544.5
85906.1
100261
100454
100797
101188
101472
101425
100776
99343.4
97182.3
94618.1
92006.7
89657.7
87794.1
86523.2
85882.7
100258
100452
100797
101186
101465
101416
100757
99317.9
97161.1
94609.1
92010.3
89651.6
87778
86502.9
85860.5
100252
100447
100791
101181
101457
101405
100737
99250.2
97133.9
94590.9
91998
89636.7
87759.6
86483.3
85840.3
100245
100438
100783
101172
101449
101398
100736
99295.4
97130.8
94574.4
91973
89613.4
87739.8
86464.9
85822.8
100235
100428
100770
101159
101442
101389
100733
99291.8
97121.2
94549.2
91933.5
89582.4
87718.7
86448.5
85808.6
100225
100416
100757
101144
101431
101388
100741
99297.1
97114.7
94532.7
91904.2
89555.8
87700.4
86435.9
85798.4
100215
100405
100744
101132
101422
101398
100756
99313
97137.2
94524.8
91881.6
89535.6
87687.1
86427.4
85791.9
100207
100397
100734
101122
101415
101401
100768
99330.9
97144.3
94519
91866.6
89522.3
87678.6
86422.4
85788.5
100202
100391
100727
101115
101409
101401
100771
99333.9
97145
94513.3
91857.3
89514.6
87674
86419.9
85786.9
100199
100388
100723
101111
101406
101400
100773
99336.2
97145.4
94510.9
91853.6
89511.6
87672.2
86419
85786.5
99868.4
100165
100731
101489
102263
102829
102645
101101
98284
94786
91399
88590.2
86492.6
85110.7
84426.6
99867.9
100166
100732
101491
102264
102829
102638
101090
98273.3
94778
91391.2
88580.9
86482
85099.5
84415.3
99867.1
100166
100735
101496
102270
102827
102618
101070
98249.6
94770.1
91385.4
88568.1
86463.8
85079.3
84394.5
99866.2
100168
100741
101506
102279
102813
102577
101033
98197.3
94758
91389
88558.2
86442
85052.9
84366.8
99865.4
100170
100750
101519
102287
102780
102479
100915
98091.8
94756
91396.5
88551.2
86420.1
85023.7
84335.7
99864
100173
100760
101533
102302
102752
102432
100878
98064.7
94757
91422.5
88552.2
86400
84995.3
84304.6
99860.7
100172
100764
101545
102294
102755
102410
100851
98038.6
94750.9
91516
88559.7
86385
84970.2
84276.7
99854.9
100168
100760
101543
102292
102756
102414
100836
98005.4
94729.2
91500.4
88544.2
86364.4
84948.1
84253.8
99846.1
100158
100749
101530
102278
102737
102389
100824
98002.5
94711.3
91472.2
88517.4
86343.2
84929.1
84236.2
99835.5
100145
100733
101504
102273
102720
102391
100825
97994.9
94678.3
91338.6
88466.6
86316.9
84914.3
84224.9
99824.4
100130
100711
101479
102244
102731
102419
100832
97986.6
94639.7
91272.4
88426.3
86298.7
84905.6
84219.6
99814.5
100117
100692
101455
102226
102758
102499
100928
98061.6
94605
91228.6
88398.5
86286.9
84902.2
84218.8
99806.9
100107
100678
101437
102207
102759
102531
100948
98095.1
94590.9
91195.6
88379.7
86281.1
84902.1
84220.6
99801.8
100100
100668
101425
102194
102753
102541
100954
98097.4
94577
91179.2
88371.3
86279.3
84903.4
84223
99799.3
100097
100664
101419
102188
102750
102543
100957
98098
94572.9
91174.5
88368.9
86279.3
84904.6
84224.6
99102.5
99557.7
100465
101806
103447
105082
106083
104299
100039
94697.7
90045.6
86567.1
84153.6
82635.3
81904.5
99100.6
99557.1
100467
101811
103454
105084
106073
104282
100017
94679.4
90027.7
86548.6
84135
82617.6
81887.5
99097.5
99556.7
100473
101824
103473
105098
106053
104268
100001
94684.5
90018.4
86523.3
84103.5
82585.7
81856.3
99093.6
99557.3
100484
101854
103510
105127
105892
104258
99901.6
94756.9
90054.4
86504.9
84065.4
82544.1
81814.8
99089.7
99559.8
100501
101881
103551
105081
105068
103875
100580
94848.4
90101.7
86499.1
84024.8
82497
81767.7
99085.9
99564.1
100530
101957
103637
104281
104937
103831
100602
96055.2
90201.4
86505.2
83989.8
82449.6
81720.9
99080.3
99565.7
100544
101981
102977
104312
104892
103774
100545
96047.8
91466.1
86506.9
83959
82412.6
81681.4
99072.5
99561.5
100544
101984
102969
104328
104907
103663
100512
96027.7
91421.7
86484.5
83937.8
82387.3
81652.2
99063.4
99549.3
100529
101966
102957
104309
104877
103723
100499
96002.9
91406
86459.6
83911
82366.1
81636.4
99052.8
99532.1
100499
101926
103609
104259
104873
103745
100497
95979.8
90090.9
86402.4
83893.1
82357.8
81631.9
99042.2
99514.3
100460
101846
103515
105041
104999
103789
100509
94708.5
89945.3
86347.8
83883.3
82362.8
81637.6
99033.7
99499.8
100432
101805
103459
105089
105806
104131
99711.5
94552.4
89847.9
86310.2
83883.8
82372.3
81648.3
99028
99490
100412
101769
103419
105046
105981
104130
99814.7
94452
89775.6
86293.1
83888.6
82382.7
81659.8
99024.4
99483.9
100400
101748
103392
105025
105986
104121
99791.6
94411.8
89752.5
86290.2
83895
82391.7
81669.4
99022.8
99481.2
100395
101740
103382
105017
105995
104126
99798.1
94407.6
89749.1
86291.9
83899.7
82397.2
81674.9
97765.1
98393.4
99695.3
101765
104668
108324
112266
109823
102738
93754.8
87298
83228.4
80642.7
79101.7
78388.2
97759.8
98389.6
99695.2
101772
104684
108336
112262
109804
102694
93700.7
87253.3
83189.3
80609
79073.4
78362.7
97750.3
98383.6
99697.2
101789
104722
108382
112294
109790
102691
93666
87208.8
83129.5
80551.3
79022.7
78315.9
97737.5
98377.2
99709.9
101864
104911
108577
109966
109834
104216
94095.4
87321.6
83088.7
80479
78955.4
78253.3
97722.8
98369.4
99727.8
101911
104974
107073
109905
109731
104233
96278.4
87391.3
83031.6
80394.7
78875.3
78180.9
97709.7
98372.8
99781.8
102130
104123
107252
109915
109567
104115
96414.8
89559.5
83039.6
80291.2
78796.7
78108.2
97693.7
98359.3
99776.7
101536
104187
107337
108963
108841
104396
97351.3
89686.2
84862.6
80178.6
78717.9
78045.6
97684.1
98356.7
99827.6
101531
104225
107371
108976
108803
104389
97350.8
89708.6
84883.3
80236
78677.3
78011.3
97672.6
98339.6
99761.6
101513
104205
107356
108948
108799
104346
97319.4
89663.6
84847.4
80120.8
78665.3
77995.4
97668
98333.3
99745.9
102094
104097
107247
109003
108808
104326
96324.6
89492.9
82914.1
80177.5
78691.7
78008
97663.5
98314.3
99682.5
101885
104962
107089
109834
109497
103963
96158.6
87176.8
82840.2
80225.6
78720.8
78033.8
97662.9
98307.2
99649.8
101814
104868
108547
109864
109698
104093
93787.2
87040.6
82845.1
80262
78756.7
78064.2
97663.9
98302.9
99629.5
101742
104701
108372
112249
109660
102441
93341.1
86887
82842.4
80293.1
78786.4
78091.4
97665.3
98301.1
99620
101716
104649
108313
112226
109629
102388
93301.9
86878.6
82862.6
80318.1
78808.7
78111.9
97666.4
98300.9
99616.7
101707
104632
108293
112232
109630
102392
93300
86883.4
82875.1
80332.2
78821.3
78123.3
95606.5
96359.7
97980.7
100748
105128
112047
117774
123617
110746
89831.9
81981.4
78044.8
75701.5
74424.7
73871
95595
96349.4
97974.3
100753
105164
112084
117781
123556
110564
89613.3
81863.1
77959.2
75642.4
74381.9
73834.9
95572.6
96329.2
97958.4
100740
105173
112142
117800
123494
110363
89376.6
81685.9
77808
75539.6
74305
73769.1
95541.6
96305.9
97956
100808
105596
110036
117932
123579
110213
93683
81678.7
77605
75403.3
74203.7
73680.8
95502
96264.7
97927.1
100887
104375
110309
118227
121102
111428
94280.4
84830.2
77371.8
75183.3
74067.1
73575.3
95468.4
96228.3
97967.5
100462
104485
109376
116441
119972
111358
96426.5
84861.6
79695.5
74946.7
73911.8
73465.9
95428.4
96176.4
97946.5
100490
104624
109416
115521
119930
111760
97281.4
86513.5
79662.7
74770.7
73776.8
73373.2
95404.6
96143.2
97946.2
100553
103982
108911
115546
119892
111683
97252.8
86429.9
79605.3
76715.3
73697.4
73327.2
95400.4
96150.7
97926.1
100514
103973
109394
115545
119884
111655
97212.8
86390.2
79542.3
74698.5
73718.9
73318.3
95412.4
96176.3
97926.7
100417
104585
109423
115501
119908
111671
97151.2
86415
79572
74813.1
73793.9
73355.9
95422.7
96191.4
97865.8
100835
104362
110379
116339
120908
111172
96036
84637.5
77125
74981.9
73892.2
73413
95442.2
96213.9
97881
100761
105581
110069
117971
123496
109885
93393.5
81301.4
77299
75148.7
73978.4
73470.8
95457.9
96223.9
97874.7
100694
105190
112211
117843
123394
109949
88850.1
81256.8
77450.4
75231.6
74034.8
73517.8
95469.8
96234
97880.4
100693
105158
112142
117813
123409
110023
88952.7
81347.5
77539.1
75290.1
74076
73551.8
95476.1
96239.6
97883.5
100688
105136
112114
117814
123431
110093
89026.9
81390.3
77580.4
75320.6
74098.4
73570.4
92404.8
93137.5
94762.4
97699.6
102643
109389
125709
155827
117103
83490.4
72109.2
70236.3
69122.9
68649.1
68470.5
92384.1
93116.7
94742.6
97683.1
102647
109405
125740
155824
116030
82868.2
71837
70078.4
69033.7
68590.9
68424.7
92341.3
93068.7
94686.9
97604.6
102558
109440
125756
155877
115271
82369
71470.3
69834
68885.6
68487.3
68342.6
92279.5
93001.9
94608.9
97384.4
101948
109862
125858
155869
114952
82255.6
74801.2
69379.6
68682.9
68349.1
68233.8
92192.5
92890.3
94416.7
97455.3
101989
109002
122987
155851
115878
85944.9
74304
71439.9
68302.1
68163.3
68100.3
92105.9
92733.7
94857.8
97492.1
101725
108982
121640
150899
120204
87663.1
76362.6
71133
69897.3
67939.5
67964.1
92039.7
92656.2
94830.7
97469.7
101739
108573
121578
150835
120014
87472
77465.8
72585.5
69751.8
67837.7
67871.9
91992.1
92610.5
94871.1
97480.2
101734
108558
121565
150832
119923
87353.4
77352.2
72474.3
69694.7
67802
67809
92000.1
92619.8
94810.1
97488.7
101749
108567
121586
150858
119873
87271.6
77293.3
72431.2
69630.6
67779.2
67814.7
92027
92659.2
94807
97423.8
101745
108593
121644
150917
119802
87195.6
77266.2
72456.3
69690.8
67815.8
67850.2
92080.7
92785.9
94329.1
97383.1
101966
109061
121756
151034
119789
87171.2
76147.1
71021.5
68075.3
67976.7
67930.3
92139.9
92872.4
94504.6
97322.2
101828
109854
123174
156074
114338
85531
74117.5
69004.8
68392.6
68104.6
68011.8
92180.4
92920.2
94567
97530.9
102563
109559
126055
156198
114419
81500.8
70937.8
69406.6
68535.1
68192.8
68074.2
92209.3
92955.2
94611.5
97602.9
102666
109578
126080
156257
114611
81668.9
71145.2
69556.7
68625
68251.9
68118.4
92223.1
92970.2
94628.2
97620.4
102673
109555
126090
156247
114932
81899.2
71281
69644.3
68672.7
68282.3
68142.3
88092.4
88556.4
89571.1
91395.8
94329.5
100833
107821
104078
42706.2
55511.5
57828.5
59941.1
61305.4
62184
62581.9
88063.3
88525.4
89538.4
91358.7
94303.1
100819
107861
104240
29719.4
53847.2
57322.2
59709.4
61194.3
62118
62533.2
88000.5
88450.7
89455.9
91278.1
94201.6
100772
107896
104590
27341
52984.7
56929.9
59518.4
61055.1
62016.3
62453.8
87907.6
88330.7
89310.1
90985.9
95451.2
100408
107761
104767
26984.4
52928.8
58280.1
59416.8
60921.3
61897.3
62359.8
87776.1
88164.1
89061.9
92066.1
95186.4
100832
108656
104809
30690.8
56254.1
59661.1
60582.3
60795.5
61776.5
62253.1
87627.4
87991.1
90139.7
91919
95622.6
101085
108530
104717
26711.1
56160.5
60431.1
60534.1
61843.6
61717.1
62155.4
87548.4
87902.1
90080.4
91814.1
95848.5
101029
108471
104725
26456.6
55955.5
60402.5
61397.6
61734.9
61686.4
62108
87496.3
87840.8
90020.6
92416.1
95837.4
101006
108463
104733
25530.1
55783.1
60329
61849.5
61725
61678.1
62065.6
87491.1
87848.3
90004.9
92395.1
95832.4
101017
108499
104838
25456.8
55644.3
60244.2
61795.9
61658.4
61631.5
62054.9
87513.4
87883.4
90040.9
91786.3
95827
101059
108580
104993
24494.8
55462.7
60140.2
61246.4
61646
61605.4
62050.4
87613.2
88006.3
88919.8
91898.4
95613.2
101129
108707
105163
23944.4
55286.8
59972.1
60234.3
60586.7
61597.7
62090.8
87705.8
88137
89141.5
90858.2
95298.1
100201
107820
105430
23880.7
53524.7
57511.8
59025.5
60611.1
61654.5
62144.5
87767.1
88230.6
89265.2
91148.2
94149.9
100684
108140
105472
23647.8
51800.5
56316.4
59043.9
60690.8
61721.3
62190.2
87812.2
88288
89333.7
91209.7
94258.1
100954
108295
105498
23807.6
52072.3
56512.6
59123.9
60755.3
61769.3
62226.8
87832.3
88310.9
89362.9
91252.9
94293.2
101007
108332
105481
25778.2
52608.3
56726.1
59234.7
60806.3
61800.3
62249.1
82925.1
82892
82792.5
82619.8
82729.2
86704.1
90215.8
103037
21370.4
33308.8
43983
49946.9
53753.4
55975.4
56966.9
82892.3
82856.8
82756
82582.1
82706.3
86668.6
90201.4
102862
2298.34
31996.3
43456.4
49700.3
53642.3
55913.9
56925.1
82824.8
82780.9
82681
82554.5
82652.4
86577.3
90146.4
102864
5084.22
31758.5
43283.6
49583.3
53548.8
55847.9
56871.8
82728.8
82658.4
82558.4
82550.4
85299.1
86522.8
89979.9
102831
3266.05
31762
43566
49664.7
53520.2
55805.1
56830.5
82602.8
82509.2
82456.8
84449.1
85285.1
88286.2
91053.5
102900
2238.21
31562.8
44111.3
50389.8
53553.2
55799.5
56804.4
82461.3
82429.6
83950.4
84319
86433.6
89025.5
90958.7
102554
5167.86
31715
44346.4
50325.5
54205.3
55827.1
56793.4
82388.9
82369.3
83806.3
84246
87011.7
88932.9
90885.3
102492
4332.76
31711.3
44327.1
50654.6
54160.3
55820
56785.7
82327.6
82302.1
83716.4
85158.4
86957.4
88888.1
90857.7
102426
4778.72
31643.2
44275.8
50849.4
54102.8
55813.7
56759.1
82304.4
82286.4
83688.2
85127.9
86942.9
88888.4
90877.9
102510
3342.55
31490.6
44203.6
50805
54072.3
55770.2
56743.3
82297
82274.9
83722.2
84188.4
86956.2
88931.7
90942.5
102626
2335.99
31368.3
44122.4
50536.6
54085
55732.1
56711.5
82364.5
82269.2
82240.6
84192.1
86383.7
89028.1
91040.3
102768
2389.99
31287.2
44018.4
50081.5
53374.6
55657.9
56674.1
82433.4
82364.7
82270.4
82320.2
85171.5
86595.3
90263
103176
2390.36
31209.2
43288.5
49351
53255.8
55604.9
56652.8
82490.3
82451.8
82365.3
82269.6
82444.6
86484.3
90179.5
103134
2649.45
31286.5
42848.2
49180
53234.4
55596.4
56650.4
82532.9
82504.6
82426.5
82297.6
82490.3
86585.4
90326.6
103225
4282.25
31367.1
42871.2
49170.3
53242.8
55603.9
56659.6
82554.2
82530
82456
82333
82512.2
86663
90399.4
103250
7353.42
31554.3
43095.4
49266.8
53281.5
55626.2
56672.7
77571.7
76993.7
75781.6
73819.8
73638.7
72805.3
75378.5
2431.18
23706.6
36027
43277.2
48244
51217.3
52590.9
77538.5
76957.8
75742.6
73778.4
73593.9
72749
75322.8
2258.65
23398.6
35725.9
43131.8
48169.1
51174.1
52563.1
77476.5
76894.1
75669.6
73720.1
73572.4
72671.8
75190.5
2212.37
23409.7
35756.6
43093.7
48127.2
51147.3
52540
77399.2
76809.5
75576.6
73776.7
73775
72528.7
74962.2
2233.21
23325.1
34917.5
43234
48140.8
51156
52541.3
77314.3
76719.9
75605.3
75692.4
74271.1
74466.3
75564.2
7007.6
21144.2
34445.7
42958.3
48183.7
51199.2
52568.6
77217.9
76742
76974.8
75875.8
75481.8
75346
75487.5
2332.01
21123.6
34182.1
42936.9
48211.8
51213.2
52608.5
77150.7
76689.7
76850.4
75881.5
76174
75323
75416.6
2269.61
21164.1
34172.6
42755.6
48210.6
51199.9
52618.3
77073.8
76614.6
76755.1
76662.1
76218.7
75285.6
75367.6
2298.81
21108.5
34131.9
42688.7
48156.5
51193.8
52602.2
77028.1
76565
76700.4
76626.6
76181.7
75267.1
75368.8
2305.12
21048.3
34088.2
42653.6
48137.6
51163.6
52594.1
76987
76516.3
76705
75735
76060.1
75258.9
75410.6
2323.15
21067.5
34062.7
42666.9
48153
51152.5
52567.2
76975.7
76370.1
75270.5
75374.9
75249.7
75214.8
75436.7
2318.85
21093.4
34044.6
42785.5
48082.4
51125.5
52496.6
76984
76386.5
75128
73373.6
73481.3
72404.1
74579.5
2331.93
21925
34809.8
43029.4
47968.1
51040.7
52439.7
77009
76419.9
75187.9
73246.7
73152.5
72334.7
74915.4
2362.89
23144.2
35492.7
42830.6
47923.2
50990.2
52408.1
77039.1
76453.4
75237.7
73301.9
73187.1
72427.6
75093.8
2385.36
23279.3
35342.5
42762.6
47890.9
50964.6
52392.9
77057.6
76476
75264.9
73331.5
73182.8
72495.2
75213.5
2412.26
22939.5
35351.7
42758.2
47895.7
50969.9
52394.1
72898.6
71823.3
69560.1
65553.7
63566.9
56604.2
52899.5
4051.11
2208.82
21943.8
33035.7
40450.3
45598.5
48708.4
50190.1
72860.1
71779.7
69505.8
65478.5
63489.4
56482.4
52725.8
2901.68
2210.62
21055.8
32893.7
40422.1
45566.8
48688.4
50177.2
72790.3
71706.6
69400.9
65321.9
63361.4
56259
52450.2
2780.66
2216.89
18235.3
33067.1
40436.5
45557.1
48684.7
50173.2
72706.9
71621.5
69245.1
65185.5
63203.9
55983.7
52144.4
2360.9
2234.35
19191.5
30916.1
40445.7
45556.4
48706.7
50191.5
72626.7
71519.6
69089.1
67931.5
62868.7
58657.4
53897.5
2634.11
2361.61
16953.5
29704.5
39081.9
45549.8
48765.4
50239.8
72535.1
71436
70871.6
67690.1
64612
59833.5
53953.8
2485.93
2271.91
16759.7
29058.5
38987.4
44777.9
48810.1
50309.2
72439.4
71322.9
70742
67444.2
65316.7
59731.6
53841.1
2337.19
2299.44
16846.3
28995.1
38273.3
44782
48823.7
50344.1
72335.9
71218.4
70607.1
68667.6
65222.5
59650.2
53763.2
2362.58
2376.73
16769.1
28916
37931.8
44757.7
48825.3
50346.9
72270
71141.6
70531.2
68603.2
65148.5
59616.5
53799
2308.88
2314.56
16693.2
28853.2
37894.3
44749.5
48799.7
50341.4
72215.8
71096.6
70526.3
67229.9
65113.2
59618.7
53979.6
697.148
2363.43
16779.9
28880.9
38197.9
44757.3
48790.2
50319.5
72169.1
71033.7
68543.6
67371.8
64265.7
59575
53890.6
3027.58
2295.27
17030.7
29007.3
38912.7
45497.6
48775
50248
72149.3
71036.7
68593.5
64493.5
62479.3
55483.8
51866.2
2618.41
2307.48
17974.4
30745.4
40333.8
45502
48704.5
50202.1
72167.4
71056.4
68703.5
64585.4
62587.7
55619.2
51906.6
3048.21
2370.12
18962.2
32825.4
40288.9
45481.2
48660.4
50174.9
72198.8
71093.6
68777
64725.3
62752.3
55838.4
52147.6
2926.96
2395.77
21623.6
32543.2
40207.5
45431.6
48624.7
50152.7
72220
71121.2
68818.8
64790
62832.8
56007.6
52392
2739.82
2387.92
21513.8
32407.1
40079.9
45400.2
48609.8
50143.2
69680.2
68225.2
65130.3
59625.7
49934.9
40998.8
17551.1
2295
2244.18
23998.7
33233.2
40783.4
45670.2
48585.5
49984.2
69628
68165.4
65047.9
59507.4
49763.6
40777.3
17337.9
2264.11
2189.54
23367.1
33725.3
40847.7
45666.3
48581.1
49980.5
69533
68063.5
64908.5
59331.9
49503.3
40262.5
16998.4
2258.43
2222.83
19049.5
33679.8
40837.8
45645.7
48576.4
49979.6
69411.9
67947.3
64715.3
59127.8
53623.3
39788.8
16950
2257.88
2231.05
19080.7
30391.9
40683.4
45589.5
48581.7
50002.3
69290.4
67817
64559.6
61494.4
53462.2
43338.5
23266.5
2261.71
2271.24
15798.2
28622.3
38375.1
45553.9
48659.3
50078.6
69164.2
67668.5
66085.8
61287.6
55370.4
44959
24012.4
2299.04
2282.49
15235.9
27581.4
38209.7
44087.6
48779.9
50198.1
69025.3
67495.6
65956.2
61011.1
56092.8
44773.3
23846.2
2287.84
2322.75
15350.1
27386.9
37048.1
44110.9
48865.7
50289.4
68891.8
67350.4
65789.4
62188.2
55862.1
44589.2
23764.2
2277.06
2313.86
15090.4
27150.4
36447.3
44120.7
48903.3
50329.9
68807
67245.8
65673.5
62054.7
55712.9
44494.3
23785.5
2296.44
2295.93
14184.9
26908.5
36372
44115.1
48867.6
50316.4
68751
67198.2
65630
60588
55663
44503.4
24280.2
2236.55
2324.64
14335.6
27000.3
36919.8
44107.5
48818.5
50277.3
68700.5
67170.4
63748.9
60716.7
54670.9
44415.4
23990.4
2322.56
2338.63
15612.4
27441.2
38166
45582.9
48769.6
50199
68701.5
67170.7
63785.3
57991.6
52560.9
38910.1
18150.8
2275.17
2314.82
17220.5
30204.5
40638.9
45647.6
48718.4
50166.2
68748.8
67215.5
63935.2
58186.1
48260.2
39141.1
16496.4
2279.81
2379.13
19030.7
33420.7
40751.8
45694.7
48713.3
50155.3
68802.7
67281.2
64050.6
58369
48529.2
39632.4
16674.3
2272.55
2406.52
22891.7
33220.8
40686.1
45658.8
48688
50138.8
68836.9
67325.6
64124.5
58488.1
48695.7
39943.7
16974.5
2277.47
2383.25
22942.9
32503.4
40459.7
45600.5
48659
50126.4
68512.7
67011.9
63785.2
58318.4
48505.2
38127.3
6953.82
2288.64
2183.53
27191.2
36836.2
44037.2
48140.3
50598
51767.5
68442.8
66932.3
63674.1
58122.4
48280.8
37708.7
5044.18
2238.78
7376.61
28927.5
37801.6
44106.2
48152.1
50592.4
51759.7
68318.3
66797.5
63501.8
57839.5
48585.4
36017.7
5871.47
2280.67
2220.17
22598.6
37715.2
43947.1
48059.4
50561
51751.3
68159.2
66648
63317.1
57686.9
50517.9
35135.2
8074.36
2260.43
2227
22465.8
33456.4
43653
47948.5
50553.9
51779.5
67998.3
66491.6
63199.1
59040.2
50187.8
37647.3
17157.3
2278.5
2280.25
17912.4
30955.8
40666.8
47983
50678.6
51903.6
67837
66327.4
63985.4
58676
51253.9
38491.9
17270.1
2287.56
2285.23
16748.8
29388.9
40509.7
46089.2
50974.4
52139.9
67658.3
66105.1
63781.2
58343.1
51508.2
38002
16688.5
2283.96
2294.77
16353.1
28958
39050.3
46292.7
51227.9
52349.9
67501.4
65921.7
63555.2
58972.1
51086.7
37514.6
16382.2
2260.22
2287.12
15374.8
28483
38259
46442.7
51337.1
52446.3
67396.7
65792.2
63392.2
58748.8
50772.6
37175.2
16182
2292.78
2288.27
13001.8
27978.8
38140.3
46397
51252.3
52400.4
67339.9
65728.5
63283.6
57611.5
50613.8
37029.2
16230.2
2269.88
2345.88
13639.1
28171.7
38868.6
46250.8
51096.2
52300.6
67289.7
65673.3
62070.7
57695.1
49842
36952.1
16426.3
2303.65
2321.42
16331.6
29042.4
40518.6
48157.3
50945.5
52175.5
67317.8
65680.1
62056.8
55943.2
48457
33574.7
15636.9
2311.42
2332.11
19348.8
33013.2
43767
48194.8
50885.1
52140.4
67401.7
65764
62220
56169.7
46452.4
33493.3
6300.97
2261.75
2459.02
22012.8
37378.1
43981.2
48301.9
50915.3
52150.3
67488.4
65871.7
62393.8
56540.8
46307.6
36145.7
3779.47
2254.02
8921.39
27780.9
37284.2
44025.1
48318.1
50914.1
52150.7
67543
65941.3
62505.9
56752.8
46532
36390.8
4074.52
2256.83
2397.32
25623.8
36018.4
43777.9
48221.5
50880.8
52143.2
69621.6
68516.9
66165.3
62509.7
54965.7
45470.2
19204.6
2243.22
17047.7
39428.3
44948.6
50130.3
52703.9
54351
55136.4
69534.7
68413.3
66016.7
62214.2
54369.8
45028.8
12349.9
2261.68
28501.9
41964
45861
50126.8
52697.4
54324.4
55113.5
69382.7
68239
65803.4
61766.3
55956.1
42750.8
14736
4016.71
18033
33148.9
45578.7
49679.9
52494.7
54245.4
55079.6
69190.6
68027.3
65519.9
61462.9
54794
41901.3
15472.8
2280.4
9052.81
31613.8
40327.1
49118.6
52286.6
54219.2
55109.5
68994.3
67807.6
65304.4
61159.8
54123.2
42324.5
21225.4
2276.19
6018.61
24600.2
36847.3
45717.9
52452.7
54457.6
55319.9
68803.4
67610.3
65058.3
60617
53723.9
42027.1
22942.3
3878.27
2276.59
22067.7
34331.1
45828.1
50758.8
55103
55763.3
68599.8
67345.8
64698
60094.8
53150.5
40728.8
18947.5
2310.58
2277.13
21907.1
33729.6
44582.8
51537.6
55683.6
56184.7
68432.4
67134.2
64410.6
59925.6
52363.6
39472.1
17816.5
2279.91
2297.4
18390.9
33593.7
44060.8
52148
55912.2
56360.6
68321.2
66997.3
64212.4
59593.9
51763.2
38514.8
16959.5
2290.98
2178.88
15932.6
33207.9
43942.3
51874.5
55688.7
56240.3
68273.7
66945.7
64098.6
59030.1
51464.5
37961.6
16319.8
2307.4
2118.86
16201.7
33342.5
44448.1
51163.3
55307.2
56023.8
68239.2
66882.8
63918.3
59081
51135.5
37920.8
16463.1
2242.58
2336.28
21423.5
34514.7
46024.2
52950.4
54946.8
55802.6
68300.1
66949.6
63988.8
59079.5
51129.3
37136.1
16312.6
2293.67
14473.3
25599.9
39592.5
49676.9
52882.2
54859.1
55755.3
68422.1
67107.8
64278.7
59532
52472.5
38339.5
11346
2542.06
13079.7
30724.4
45181.8
49981
53059.8
54920.9
55791.7
68544.5
67270
64530.7
60170.9
51425.7
41404.2
4463.97
2364.2
23096.8
39481.8
45326.2
50247.5
53154.6
54961.3
55823.7
68620.8
67371
64691.9
60496
51974.8
41533.3
7465.23
2382.54
2916.23
35400.7
43589.5
49957.3
53027
54938.4
55828.3
72545.1
72141.7
71352.1
71175
70854.3
76726.9
109460
107553
79736.1
64267.5
58436.5
58831.9
58846.9
59308.8
59568.7
72445.5
72011.3
71169.6
70816.5
70132.2
76760.9
112247
95568.7
75455.2
62510.8
58147.7
58477.1
58728.6
59224.8
59513.6
72267.9
71780.6
70874.2
69707.6
69769.4
64338.3
72718.7
54051.8
54878.8
53316.1
56410.3
57425.4
58347.2
59060.5
59427.4
72042.7
71489.2
70380.3
68969
65192.9
61137.2
56128
25684.8
36200.3
48567.6
50835.2
56398.7
57978.4
58977.2
59426
71820
71199.2
69979.3
67014.9
64111.5
57823.3
42329.7
5539.16
23399.8
37579.2
45761.7
52937.4
58340.6
59327.8
59700.3
71624.2
70993.1
68751.3
66248
61951.3
55728
42231.6
2194.71
21198.6
25848.9
40774.1
54129.1
57658.5
60275.1
60355
71428.6
70745.4
68307.1
65581.1
60440.5
53679.1
40518.1
2154.81
23346.4
2333.3
40079.3
55038.4
60185.8
61298.9
61028.6
71282.9
70563.5
68015.6
64586.6
59244.3
50952.5
34472.9
2306.25
29536.3
19612.2
44949.4
56453.7
61795.2
61680.8
61308.8
71193.6
70451.6
67833.8
64222
58408.4
48853.9
30266.8
2290.27
2420.49
23836
45170.6
55780.8
60645.2
61209.4
61088.2
71174.7
70429.2
67736
64468.6
58101.8
47704.3
26505.1
2213.61
2248.81
25212.3
43673.2
54078.1
58515.5
60580.1
60765
71167.6
70369.4
68691.1
64501.6
58393.3
47693.6
25852.8
2285.97
2699.88
34143.8
44353.4
54294.1
59257.7
60132.7
60484.8
71267.5
70511.5
68883.2
66440.2
59847.9
50775.7
28062
2268.65
2487.07
38132.5
50451.1
57835.3
59139.6
60073.6
60470
71432.1
70753.5
69374.2
67275.8
65370.5
54122.8
40507.7
17570.8
37925.7
48176.7
56730.4
58328.4
59438
60197.3
60565.2
71589.8
70985.1
69739.2
68619.5
66461.9
70789.2
99874.9
70856
66141.4
60327.9
57995
59049.7
59681
60322.3
60656.7
71683.8
71120.5
69950.2
69071.7
67345
71687.6
98016.9
83301.6
73325.4
62695.5
57682.4
59136
59641.1
60348.4
60689.9
76290.7
76553.3
77085
79422.8
83923.2
88379.5
111090
111722
92745.2
78066.5
70261.9
67168.2
65170.1
64608.6
64377.8
76199.2
76426.7
76942.6
79264.5
83692.8
89186.5
115840
120328
92718.8
76705.1
69542.4
66646.6
64940.9
64452.2
64277
76020.6
76149.5
76639.3
77921.3
82172.2
85948.8
106253
130483
94959.3
74199.1
66610.6
65115.3
64381.1
64166
64108.2
75784.3
75809.9
75981.9
76804.3
77414.9
84176.7
104824
139069
93081.1
67743.9
62164.6
63698.9
63845.9
63952
64009.8
75556.5
75475.2
75361.5
74235.4
75196.3
77982.4
92298.7
161737
75613.9
55195.3
55958.4
60796.7
64182.9
64244
64232.2
75370.9
75185.2
73738.4
73219.2
72274
73435.1
86241.4
100847
9209.89
27197.2
49006.3
64627.6
65002.4
65331.7
64963.5
75208.2
74957.3
73325.5
72433.1
70099.6
70009.5
77985.7
60614
2293.34
2266.37
50457.4
74722.1
70841.6
67067.4
65992.3
75114.9
74839.8
73113.7
71285.2
68901.8
66962.3
68613.4
61778
2241.61
6241.51
75257
86013.3
74589.6
67648.2
66387
75087.9
74816.1
73067.2
71132.3
68481.6
66023.9
64599.8
2246.96
2464.41
37067.7
69123.2
78870.7
70521.3
66617.8
65939.6
75135.3
74902.5
73113.9
72029.9
68800.4
65969.3
62649.2
34489.1
2531.28
40554.9
58138.5
66434.8
66236
65773
65581.7
75190.8
75013.5
74671.3
72401
69835
66392.2
60635
32879.8
28173.7
49884.1
57735.9
63599
65663.8
65535.8
65431.2
75331.1
75232.4
75084.3
75299.7
72649.9
73873.1
71927.8
67267.9
53122.9
62714.2
64350.1
66407
65818.7
65665.9
65566.2
75519.4
75517
75672.8
76309.1
79176.9
79745.3
97681.7
125259
93044.7
73699
69164.1
67263.8
66296.8
65918.9
65777.9
75688.8
75804
76067
77911.7
81582.4
86617
113802
120460
93018
77881.5
71049.8
68284.8
66691.1
66163.8
65957.2
75779.2
75941.1
76244.4
78202.1
82057.4
86526.8
110667
112458
94098.8
79498.8
71473.1
68704.8
66803.8
66269.4
66037.4
79734.8
80232.6
81020.1
82673.1
86509.3
85240.4
88047.9
89702.1
83403.1
79224.2
75161.4
72291.8
70153.2
69290.4
68841.5
79692.8
80176.1
81001.7
82896.1
86754.9
86336.1
89636.7
92855.9
84677.2
79151.8
74825.6
71883.2
69908.8
69095.9
68703.2
79586
79977.6
80914.9
82495.1
85703.9
87765.9
91805.6
99568
85304.7
78093
72544.1
70516.8
69275.1
68699
68443.4
79421.9
79735.3
80456.6
82054.3
83241.3
87867
94906
104713
89060.4
74143.6
69464.9
68855.1
68453.1
68264
68173.9
79259.7
79468
79942.6
80150.6
81961
85277.1
93496.4
105841
80702.2
66603.1
63514.3
66105.1
68125.9
68135.7
68123.9
79139.9
79229.4
78850.8
79229.8
79774.5
81670
85269.4
80232.9
46607.3
46301.7
54155.3
67861.5
68659.9
68838.4
68508.4
79084.7
79132.8
78601
78729.6
78290.8
78683.5
77467.5
59094.4
4161.72
2281.78
18224.9
93156.7
75499.8
70479.5
69406.4
79095
79149.5
78598.2
78140
77435.6
77013.3
77302.9
42665.4
2290.46
2250.75
2393.78
131044
78292.6
70970.6
69823.6
79143.5
79222.1
78724.3
78244.9
77642.9
78022.8
133501
19325.2
2318.79
2409.05
33588.4
94770.4
73178.3
70071.9
69580.8
79231.8
79353.7
78903.5
79368.1
78922.9
81648.2
99594.4
112447
74211.9
55541.5
63338.4
70053.1
69887.4
69850.3
69630.9
79322.8
79584.1
80181.4
79978.3
80663.5
83673.6
94285.2
119954
95625.2
77548.5
69680.5
70084.7
70664.7
70184.3
69901.9
79455.9
79797.8
80588.4
82332.4
83033.1
88654.4
98316.3
126019
112295
83962.4
75408.9
73231
71490.7
70714.2
70323.3
79591
79989.1
80944.6
82627.2
86403.4
89105.9
97716.2
112318
96837.9
84802.3
77697.5
74227.3
72188.8
71149.1
70691.5
79698
80196.5
81093.8
83149.4
87476.5
88289.1
94261.4
100407
89262.9
83692.6
78519.3
74921.3
72586.1
71473.2
70948.5
79738.2
80252.6
81097.8
82916.9
87064.6
87009.7
91648.5
93998.4
86600.4
83051.3
78250.6
75078.9